 Entering Gaussian System, Link 0=g09
 Input=EPA_gaussian.com
 Output=EPA_gaussian.log
 Initial command:
 /opt/programs/gaussian/g09/d_pgi133/l1.exe "/scratch/users/acebrian/lixo/Gau-24841.inp" -scrdir="/scratch/users/acebrian/lixo/"
 Entering Link 1 = /opt/programs/gaussian/g09/d_pgi133/l1.exe PID=     24843.
  
 Copyright (c) 1988,1990,1992,1993,1995,1998,2003,2009,2013,
            Gaussian, Inc.  All Rights Reserved.
  
 This is part of the Gaussian(R) 09 program.  It is based on
 the Gaussian(R) 03 system (copyright 2003, Gaussian, Inc.),
 the Gaussian(R) 98 system (copyright 1998, Gaussian, Inc.),
 the Gaussian(R) 94 system (copyright 1995, Gaussian, Inc.),
 the Gaussian 92(TM) system (copyright 1992, Gaussian, Inc.),
 the Gaussian 90(TM) system (copyright 1990, Gaussian, Inc.),
 the Gaussian 88(TM) system (copyright 1988, Gaussian, Inc.),
 the Gaussian 86(TM) system (copyright 1986, Carnegie Mellon
 University), and the Gaussian 82(TM) system (copyright 1983,
 Carnegie Mellon University). Gaussian is a federally registered
 trademark of Gaussian, Inc.
  
 This software contains proprietary and confidential information,
 including trade secrets, belonging to Gaussian, Inc.
  
 This software is provided under written license and may be
 used, copied, transmitted, or stored only in accord with that
 written license.
  
 The following legend is applicable only to US Government
 contracts under FAR:
  
                    RESTRICTED RIGHTS LEGEND
  
 Use, reproduction and disclosure by the US Government is
 subject to restrictions as set forth in subparagraphs (a)
 and (c) of the Commercial Computer Software - Restricted
 Rights clause in FAR 52.227-19.
  
 Gaussian, Inc.
 340 Quinnipiac St., Bldg. 40, Wallingford CT 06492
  
  
 ---------------------------------------------------------------
 Warning -- This program may not be used in any manner that
 competes with the business of Gaussian, Inc. or will provide
 assistance to any competitor of Gaussian, Inc.  The licensee
 of this program is prohibited from giving any competitor of
 Gaussian, Inc. access to this program.  By using this program,
 the user acknowledges that Gaussian, Inc. is engaged in the
 business of creating and licensing software in the field of
 computational chemistry and represents and warrants to the
 licensee that it is not a competitor of Gaussian, Inc. and that
 it will not use this program in any manner prohibited above.
 ---------------------------------------------------------------
  

 Cite this work as:
 Gaussian 09, Revision D.01,
 M. J. Frisch, G. W. Trucks, H. B. Schlegel, G. E. Scuseria, 
 M. A. Robb, J. R. Cheeseman, G. Scalmani, V. Barone, B. Mennucci, 
 G. A. Petersson, H. Nakatsuji, M. Caricato, X. Li, H. P. Hratchian, 
 A. F. Izmaylov, J. Bloino, G. Zheng, J. L. Sonnenberg, M. Hada, 
 M. Ehara, K. Toyota, R. Fukuda, J. Hasegawa, M. Ishida, T. Nakajima, 
 Y. Honda, O. Kitao, H. Nakai, T. Vreven, J. A. Montgomery, Jr., 
 J. E. Peralta, F. Ogliaro, M. Bearpark, J. J. Heyd, E. Brothers, 
 K. N. Kudin, V. N. Staroverov, T. Keith, R. Kobayashi, J. Normand, 
 K. Raghavachari, A. Rendell, J. C. Burant, S. S. Iyengar, J. Tomasi, 
 M. Cossi, N. Rega, J. M. Millam, M. Klene, J. E. Knox, J. B. Cross, 
 V. Bakken, C. Adamo, J. Jaramillo, R. Gomperts, R. E. Stratmann, 
 O. Yazyev, A. J. Austin, R. Cammi, C. Pomelli, J. W. Ochterski, 
 R. L. Martin, K. Morokuma, V. G. Zakrzewski, G. A. Voth, 
 P. Salvador, J. J. Dannenberg, S. Dapprich, A. D. Daniels, 
 O. Farkas, J. B. Foresman, J. V. Ortiz, J. Cioslowski, 
 and D. J. Fox, Gaussian, Inc., Wallingford CT, 2013.
 
 ******************************************
 Gaussian 09:  ES64L-G09RevD.01 24-Apr-2013
                15-Feb-2018 
 ******************************************
 %nproc=2
 Will use up to    2 processors via shared memory.
 %chk=COX2-EPA
 ----------------------------------------------------------------------
 #HF/6-31G* SCF=tight Test Pop=MK iop(6/33=2) iop(6/42=6) opt # iop(6/5
 0=1)
 ----------------------------------------------------------------------
 1/18=20,19=15,38=1/1,3;
 2/9=110,12=2,17=6,18=5,40=1/2;
 3/5=1,6=6,7=1,11=9,16=1,25=1,30=1,71=1/1,2,3;
 4//1;
 5/5=2,32=2,38=5/2;
 6/7=2,8=2,9=2,10=2,15=8,20=1,28=1,33=2,42=6,50=1/1,2;
 7//1,2,3,16;
 1/18=20,19=15/3(2);
 2/9=110/2;
 99//99;
 2/9=110/2;
 3/5=1,6=6,7=1,11=9,16=1,25=1,30=1,71=1/1,2,3;
 4/5=5,16=3,69=1/1;
 5/5=2,32=2,38=5/2;
 7//1,2,3,16;
 1/18=20,19=15/3(-5);
 2/9=110/2;
 6/7=2,8=2,9=2,10=2,15=8,19=2,20=1,28=1,33=2,42=6,50=1/1,2;
 99/9=1/99;
 --------------------
 COX2-EPA charge resp
 --------------------
 Symbolic Z-matrix:
 Charge = -1 Multiplicity = 1
 C                     11.472    22.613    25.75 
 O                     10.277    22.512    26.096 
 O                     12.387    22.755    26.587 
 C                     11.834    22.584    24.28 
 C                     12.053    23.943    23.685 
 C                     13.359    24.573    24.153 
 C                     14.203    24.953    22.959 
 C                     15.536    24.917    22.976 
 C                     16.339    24.504    24.189 
 C                     17.756    25.017    24.024 
 C                     18.402    25.803    24.9 
 C                     17.832    26.307    26.212 
 C                     16.759    27.334    25.925 
 C                     16.551    28.411    26.677 
 C                     17.37     28.718    27.905 
 C                     16.362    29.074    28.952 
 C                     16.669    29.194    30.231 
 C                     18.056    28.994    30.785 
 C                     17.855    28.825    32.281 
 C                     18.827    28.711    33.174 
 C                     20.312    28.732    32.87 
 C                     21.022    29.348    34.04 
 H                     12.7779   22.0835   24.2212 
 H                     10.9812   22.1785   23.7768 
 H                     11.2691   24.5647   24.0644 
 H                     12.1547   23.7941   22.6303 
 H                     13.8961   23.8118   24.6793 
 H                     13.0999   25.485    24.6489 
 H                     13.7103   25.2642   22.0616 
 H                     16.0635   25.1941   22.0873 
 H                     15.9181   25.0131   25.0308 
 H                     16.3904   23.4353   24.181 
 H                     18.2835   24.7296   23.1385 
 H                     19.4003   26.0979   24.6524 
 H                     18.6238   26.8189   26.7178 
 H                     17.348    25.4752   26.6797 
 H                     16.133    27.1858   25.07 
 H                     15.7701   29.0876   26.399 
 H                     17.8533   27.8135   28.2104 
 H                     17.9516   29.5925   27.7001 
 H                     15.3483   29.2385   28.6515 
 H                     15.8861   29.4484   30.9146 
 H                     18.6035   29.9      30.6294 
 H                     18.4314   28.0691   30.3995 
 H                     16.8483   28.7957   32.6424 
 H                     18.5391   28.594    34.1979 
 H                     20.634    27.7134   32.8086 
 H                     20.4523   29.3886   32.0369 
 H                     20.3075   29.616    34.79 
 H                     21.718    28.6439   34.4459 
 H                     21.5467   30.2233   33.7183 
 

 GradGradGradGradGradGradGradGradGradGradGradGradGradGradGradGradGradGrad
 Berny optimization.
 Initialization pass.
                           ----------------------------
                           !    Initial Parameters    !
                           ! (Angstroms and Degrees)  !
 --------------------------                            --------------------------
 ! Name  Definition              Value          Derivative Info.                !
 --------------------------------------------------------------------------------
 ! R1    R(1,2)                  1.2482         estimate D2E/DX2                !
 ! R2    R(1,3)                  1.2482         estimate D2E/DX2                !
 ! R3    R(1,4)                  1.5142         estimate D2E/DX2                !
 ! R4    R(4,5)                  1.4996         estimate D2E/DX2                !
 ! R5    R(4,23)                 1.07           estimate D2E/DX2                !
 ! R6    R(4,24)                 1.07           estimate D2E/DX2                !
 ! R7    R(5,6)                  1.5237         estimate D2E/DX2                !
 ! R8    R(5,25)                 1.07           estimate D2E/DX2                !
 ! R9    R(5,26)                 1.07           estimate D2E/DX2                !
 ! R10   R(6,7)                  1.5108         estimate D2E/DX2                !
 ! R11   R(6,27)                 1.07           estimate D2E/DX2                !
 ! R12   R(6,28)                 1.07           estimate D2E/DX2                !
 ! R13   R(7,8)                  1.3336         estimate D2E/DX2                !
 ! R14   R(7,29)                 1.07           estimate D2E/DX2                !
 ! R15   R(8,9)                  1.5122         estimate D2E/DX2                !
 ! R16   R(8,30)                 1.07           estimate D2E/DX2                !
 ! R17   R(9,10)                 1.516          estimate D2E/DX2                !
 ! R18   R(9,31)                 1.07           estimate D2E/DX2                !
 ! R19   R(9,32)                 1.07           estimate D2E/DX2                !
 ! R20   R(10,11)                1.3426         estimate D2E/DX2                !
 ! R21   R(10,33)                1.07           estimate D2E/DX2                !
 ! R22   R(11,12)                1.5167         estimate D2E/DX2                !
 ! R23   R(11,34)                1.07           estimate D2E/DX2                !
 ! R24   R(12,13)                1.5128         estimate D2E/DX2                !
 ! R25   R(12,35)                1.07           estimate D2E/DX2                !
 ! R26   R(12,36)                1.07           estimate D2E/DX2                !
 ! R27   R(13,14)                1.3299         estimate D2E/DX2                !
 ! R28   R(13,37)                1.07           estimate D2E/DX2                !
 ! R29   R(14,15)                1.5076         estimate D2E/DX2                !
 ! R30   R(14,38)                1.07           estimate D2E/DX2                !
 ! R31   R(15,16)                1.4963         estimate D2E/DX2                !
 ! R32   R(15,39)                1.07           estimate D2E/DX2                !
 ! R33   R(15,40)                1.07           estimate D2E/DX2                !
 ! R34   R(16,17)                1.3208         estimate D2E/DX2                !
 ! R35   R(16,41)                1.07           estimate D2E/DX2                !
 ! R36   R(17,18)                1.5069         estimate D2E/DX2                !
 ! R37   R(17,42)                1.07           estimate D2E/DX2                !
 ! R38   R(18,19)                1.5189         estimate D2E/DX2                !
 ! R39   R(18,43)                1.07           estimate D2E/DX2                !
 ! R40   R(18,44)                1.07           estimate D2E/DX2                !
 ! R41   R(19,20)                1.3249         estimate D2E/DX2                !
 ! R42   R(19,45)                1.07           estimate D2E/DX2                !
 ! R43   R(20,21)                1.5159         estimate D2E/DX2                !
 ! R44   R(20,46)                1.07           estimate D2E/DX2                !
 ! R45   R(21,22)                1.5008         estimate D2E/DX2                !
 ! R46   R(21,47)                1.07           estimate D2E/DX2                !
 ! R47   R(21,48)                1.07           estimate D2E/DX2                !
 ! R48   R(22,49)                1.07           estimate D2E/DX2                !
 ! R49   R(22,50)                1.07           estimate D2E/DX2                !
 ! R50   R(22,51)                1.07           estimate D2E/DX2                !
 ! A1    A(2,1,3)              121.6787         estimate D2E/DX2                !
 ! A2    A(2,1,4)              119.7654         estimate D2E/DX2                !
 ! A3    A(3,1,4)              118.5501         estimate D2E/DX2                !
 ! A4    A(1,4,5)              113.7498         estimate D2E/DX2                !
 ! A5    A(1,4,23)             105.855          estimate D2E/DX2                !
 ! A6    A(1,4,24)             105.8589         estimate D2E/DX2                !
 ! A7    A(5,4,23)             105.8586         estimate D2E/DX2                !
 ! A8    A(5,4,24)             105.8569         estimate D2E/DX2                !
 ! A9    A(23,4,24)            119.9979         estimate D2E/DX2                !
 ! A10   A(4,5,6)              112.2105         estimate D2E/DX2                !
 ! A11   A(4,5,25)             106.1924         estimate D2E/DX2                !
 ! A12   A(4,5,26)             106.1924         estimate D2E/DX2                !
 ! A13   A(6,5,25)             106.1885         estimate D2E/DX2                !
 ! A14   A(6,5,26)             106.1905         estimate D2E/DX2                !
 ! A15   A(25,5,26)            119.9989         estimate D2E/DX2                !
 ! A16   A(5,6,7)              109.883          estimate D2E/DX2                !
 ! A17   A(5,6,27)             106.6896         estimate D2E/DX2                !
 ! A18   A(5,6,28)             106.6922         estimate D2E/DX2                !
 ! A19   A(7,6,27)             106.6936         estimate D2E/DX2                !
 ! A20   A(7,6,28)             106.6899         estimate D2E/DX2                !
 ! A21   A(27,6,28)            119.9979         estimate D2E/DX2                !
 ! A22   A(6,7,8)              122.7891         estimate D2E/DX2                !
 ! A23   A(6,7,29)             118.6039         estimate D2E/DX2                !
 ! A24   A(8,7,29)             118.607          estimate D2E/DX2                !
 ! A25   A(7,8,9)              123.2557         estimate D2E/DX2                !
 ! A26   A(7,8,30)             118.3729         estimate D2E/DX2                !
 ! A27   A(9,8,30)             118.3715         estimate D2E/DX2                !
 ! A28   A(8,9,10)             108.4582         estimate D2E/DX2                !
 ! A29   A(8,9,31)             106.9917         estimate D2E/DX2                !
 ! A30   A(8,9,32)             106.9958         estimate D2E/DX2                !
 ! A31   A(10,9,31)            106.995          estimate D2E/DX2                !
 ! A32   A(10,9,32)            106.9941         estimate D2E/DX2                !
 ! A33   A(31,9,32)            119.9998         estimate D2E/DX2                !
 ! A34   A(9,10,11)            125.2283         estimate D2E/DX2                !
 ! A35   A(9,10,33)            117.3846         estimate D2E/DX2                !
 ! A36   A(11,10,33)           117.3871         estimate D2E/DX2                !
 ! A37   A(10,11,12)           125.3204         estimate D2E/DX2                !
 ! A38   A(10,11,34)           117.3418         estimate D2E/DX2                !
 ! A39   A(12,11,34)           117.3378         estimate D2E/DX2                !
 ! A40   A(11,12,13)           109.1509         estimate D2E/DX2                !
 ! A41   A(11,12,35)           106.8461         estimate D2E/DX2                !
 ! A42   A(11,12,36)           106.8453         estimate D2E/DX2                !
 ! A43   A(13,12,35)           106.8451         estimate D2E/DX2                !
 ! A44   A(13,12,36)           106.8487         estimate D2E/DX2                !
 ! A45   A(35,12,36)           120.0022         estimate D2E/DX2                !
 ! A46   A(12,13,14)           123.6034         estimate D2E/DX2                !
 ! A47   A(12,13,37)           118.2            estimate D2E/DX2                !
 ! A48   A(14,13,37)           118.1966         estimate D2E/DX2                !
 ! A49   A(13,14,15)           122.7181         estimate D2E/DX2                !
 ! A50   A(13,14,38)           118.6408         estimate D2E/DX2                !
 ! A51   A(15,14,38)           118.6411         estimate D2E/DX2                !
 ! A52   A(14,15,16)           104.6211         estimate D2E/DX2                !
 ! A53   A(14,15,39)           107.8006         estimate D2E/DX2                !
 ! A54   A(14,15,40)           107.8009         estimate D2E/DX2                !
 ! A55   A(16,15,39)           107.7985         estimate D2E/DX2                !
 ! A56   A(16,15,40)           107.8            estimate D2E/DX2                !
 ! A57   A(39,15,40)           119.9991         estimate D2E/DX2                !
 ! A58   A(15,16,17)           122.8613         estimate D2E/DX2                !
 ! A59   A(15,16,41)           118.5719         estimate D2E/DX2                !
 ! A60   A(17,16,41)           118.5668         estimate D2E/DX2                !
 ! A61   A(16,17,18)           123.9107         estimate D2E/DX2                !
 ! A62   A(16,17,42)           118.0462         estimate D2E/DX2                !
 ! A63   A(18,17,42)           118.0431         estimate D2E/DX2                !
 ! A64   A(17,18,19)           104.7778         estimate D2E/DX2                !
 ! A65   A(17,18,43)           107.7668         estimate D2E/DX2                !
 ! A66   A(17,18,44)           107.7696         estimate D2E/DX2                !
 ! A67   A(19,18,43)           107.7684         estimate D2E/DX2                !
 ! A68   A(19,18,44)           107.7639         estimate D2E/DX2                !
 ! A69   A(43,18,44)           120.0            estimate D2E/DX2                !
 ! A70   A(18,19,20)           125.1958         estimate D2E/DX2                !
 ! A71   A(18,19,45)           117.4014         estimate D2E/DX2                !
 ! A72   A(20,19,45)           117.4029         estimate D2E/DX2                !
 ! A73   A(19,20,21)           125.6147         estimate D2E/DX2                !
 ! A74   A(19,20,46)           117.1932         estimate D2E/DX2                !
 ! A75   A(21,20,46)           117.192          estimate D2E/DX2                !
 ! A76   A(20,21,22)           108.2264         estimate D2E/DX2                !
 ! A77   A(20,21,47)           107.0436         estimate D2E/DX2                !
 ! A78   A(20,21,48)           107.0429         estimate D2E/DX2                !
 ! A79   A(22,21,47)           107.0426         estimate D2E/DX2                !
 ! A80   A(22,21,48)           107.0427         estimate D2E/DX2                !
 ! A81   A(47,21,48)           120.001          estimate D2E/DX2                !
 ! A82   A(21,22,49)           109.4718         estimate D2E/DX2                !
 ! A83   A(21,22,50)           109.4727         estimate D2E/DX2                !
 ! A84   A(21,22,51)           109.4723         estimate D2E/DX2                !
 ! A85   A(49,22,50)           109.468          estimate D2E/DX2                !
 ! A86   A(49,22,51)           109.4692         estimate D2E/DX2                !
 ! A87   A(50,22,51)           109.4733         estimate D2E/DX2                !
 ! D1    D(2,1,4,5)             98.9193         estimate D2E/DX2                !
 ! D2    D(2,1,4,23)          -145.2751         estimate D2E/DX2                !
 ! D3    D(2,1,4,24)           -16.8868         estimate D2E/DX2                !
 ! D4    D(3,1,4,5)            -80.2201         estimate D2E/DX2                !
 ! D5    D(3,1,4,23)            35.5855         estimate D2E/DX2                !
 ! D6    D(3,1,4,24)           163.9739         estimate D2E/DX2                !
 ! D7    D(1,4,5,6)             72.5983         estimate D2E/DX2                !
 ! D8    D(1,4,5,25)           -43.0056         estimate D2E/DX2                !
 ! D9    D(1,4,5,26)          -171.7955         estimate D2E/DX2                !
 ! D10   D(23,4,5,6)           -43.2052         estimate D2E/DX2                !
 ! D11   D(23,4,5,25)         -158.8092         estimate D2E/DX2                !
 ! D12   D(23,4,5,26)           72.401          estimate D2E/DX2                !
 ! D13   D(24,4,5,6)          -171.5945         estimate D2E/DX2                !
 ! D14   D(24,4,5,25)           72.8016         estimate D2E/DX2                !
 ! D15   D(24,4,5,26)          -55.9883         estimate D2E/DX2                !
 ! D16   D(4,5,6,7)            124.6139         estimate D2E/DX2                !
 ! D17   D(4,5,6,27)             9.3158         estimate D2E/DX2                !
 ! D18   D(4,5,6,28)          -120.091          estimate D2E/DX2                !
 ! D19   D(25,5,6,7)          -119.7799         estimate D2E/DX2                !
 ! D20   D(25,5,6,27)          124.922          estimate D2E/DX2                !
 ! D21   D(25,5,6,28)           -4.4847         estimate D2E/DX2                !
 ! D22   D(26,5,6,7)             9.0065         estimate D2E/DX2                !
 ! D23   D(26,5,6,27)         -106.2916         estimate D2E/DX2                !
 ! D24   D(26,5,6,28)          124.3016         estimate D2E/DX2                !
 ! D25   D(5,6,7,8)           -147.3096         estimate D2E/DX2                !
 ! D26   D(5,6,7,29)            32.6882         estimate D2E/DX2                !
 ! D27   D(27,6,7,8)           -32.0141         estimate D2E/DX2                !
 ! D28   D(27,6,7,29)          147.9837         estimate D2E/DX2                !
 ! D29   D(28,6,7,8)            97.3937         estimate D2E/DX2                !
 ! D30   D(28,6,7,29)          -82.6084         estimate D2E/DX2                !
 ! D31   D(6,7,8,9)             -0.4644         estimate D2E/DX2                !
 ! D32   D(6,7,8,30)           179.5369         estimate D2E/DX2                !
 ! D33   D(29,7,8,9)           179.5377         estimate D2E/DX2                !
 ! D34   D(29,7,8,30)           -0.461          estimate D2E/DX2                !
 ! D35   D(7,8,9,10)          -161.0295         estimate D2E/DX2                !
 ! D36   D(7,8,9,31)           -45.9294         estimate D2E/DX2                !
 ! D37   D(7,8,9,32)            83.8694         estimate D2E/DX2                !
 ! D38   D(30,8,9,10)           18.9692         estimate D2E/DX2                !
 ! D39   D(30,8,9,31)          134.0693         estimate D2E/DX2                !
 ! D40   D(30,8,9,32)          -96.1319         estimate D2E/DX2                !
 ! D41   D(8,9,10,11)          124.2753         estimate D2E/DX2                !
 ! D42   D(8,9,10,33)          -55.727          estimate D2E/DX2                !
 ! D43   D(31,9,10,11)           9.1773         estimate D2E/DX2                !
 ! D44   D(31,9,10,33)        -170.8249         estimate D2E/DX2                !
 ! D45   D(32,9,10,11)        -120.6225         estimate D2E/DX2                !
 ! D46   D(32,9,10,33)          59.3752         estimate D2E/DX2                !
 ! D47   D(9,10,11,12)           0.4749         estimate D2E/DX2                !
 ! D48   D(9,10,11,34)        -179.5246         estimate D2E/DX2                !
 ! D49   D(33,10,11,12)       -179.5228         estimate D2E/DX2                !
 ! D50   D(33,10,11,34)          0.4776         estimate D2E/DX2                !
 ! D51   D(10,11,12,13)        -70.4999         estimate D2E/DX2                !
 ! D52   D(10,11,12,35)        174.307          estimate D2E/DX2                !
 ! D53   D(10,11,12,36)         44.6971         estimate D2E/DX2                !
 ! D54   D(34,11,12,13)        109.4997         estimate D2E/DX2                !
 ! D55   D(34,11,12,35)         -5.6934         estimate D2E/DX2                !
 ! D56   D(34,11,12,36)       -135.3033         estimate D2E/DX2                !
 ! D57   D(11,12,13,14)       -143.8693         estimate D2E/DX2                !
 ! D58   D(11,12,13,37)         36.1298         estimate D2E/DX2                !
 ! D59   D(35,12,13,14)        -28.6755         estimate D2E/DX2                !
 ! D60   D(35,12,13,37)        151.3235         estimate D2E/DX2                !
 ! D61   D(36,12,13,14)        100.936          estimate D2E/DX2                !
 ! D62   D(36,12,13,37)        -79.065          estimate D2E/DX2                !
 ! D63   D(12,13,14,15)         -0.1367         estimate D2E/DX2                !
 ! D64   D(12,13,14,38)        179.8636         estimate D2E/DX2                !
 ! D65   D(37,13,14,15)        179.8643         estimate D2E/DX2                !
 ! D66   D(37,13,14,38)         -0.1354         estimate D2E/DX2                !
 ! D67   D(13,14,15,16)       -133.1954         estimate D2E/DX2                !
 ! D68   D(13,14,15,39)        -18.6418         estimate D2E/DX2                !
 ! D69   D(13,14,15,40)        112.2492         estimate D2E/DX2                !
 ! D70   D(38,14,15,16)         46.8043         estimate D2E/DX2                !
 ! D71   D(38,14,15,39)        161.3579         estimate D2E/DX2                !
 ! D72   D(38,14,15,40)        -67.7511         estimate D2E/DX2                !
 ! D73   D(14,15,16,17)        168.5264         estimate D2E/DX2                !
 ! D74   D(14,15,16,41)        -11.4715         estimate D2E/DX2                !
 ! D75   D(39,15,16,17)         53.9713         estimate D2E/DX2                !
 ! D76   D(39,15,16,41)       -126.0266         estimate D2E/DX2                !
 ! D77   D(40,15,16,17)        -76.9176         estimate D2E/DX2                !
 ! D78   D(40,15,16,41)        103.0845         estimate D2E/DX2                !
 ! D79   D(15,16,17,18)          0.2092         estimate D2E/DX2                !
 ! D80   D(15,16,17,42)       -179.7896         estimate D2E/DX2                !
 ! D81   D(41,16,17,18)       -179.7929         estimate D2E/DX2                !
 ! D82   D(41,16,17,42)          0.2084         estimate D2E/DX2                !
 ! D83   D(16,17,18,19)       -163.8023         estimate D2E/DX2                !
 ! D84   D(16,17,18,43)         81.619          estimate D2E/DX2                !
 ! D85   D(16,17,18,44)        -49.2274         estimate D2E/DX2                !
 ! D86   D(42,17,18,19)         16.1965         estimate D2E/DX2                !
 ! D87   D(42,17,18,43)        -98.3822         estimate D2E/DX2                !
 ! D88   D(42,17,18,44)        130.7713         estimate D2E/DX2                !
 ! D89   D(17,18,19,20)       -175.3125         estimate D2E/DX2                !
 ! D90   D(17,18,19,45)          4.6866         estimate D2E/DX2                !
 ! D91   D(43,18,19,20)        -60.7349         estimate D2E/DX2                !
 ! D92   D(43,18,19,45)        119.2642         estimate D2E/DX2                !
 ! D93   D(44,18,19,20)         70.1086         estimate D2E/DX2                !
 ! D94   D(44,18,19,45)       -109.8923         estimate D2E/DX2                !
 ! D95   D(18,19,20,21)          0.1851         estimate D2E/DX2                !
 ! D96   D(18,19,20,46)       -179.8123         estimate D2E/DX2                !
 ! D97   D(45,19,20,21)       -179.814          estimate D2E/DX2                !
 ! D98   D(45,19,20,46)          0.1886         estimate D2E/DX2                !
 ! D99   D(19,20,21,22)        148.0359         estimate D2E/DX2                !
 ! D100  D(19,20,21,47)        -96.8965         estimate D2E/DX2                !
 ! D101  D(19,20,21,48)         32.9686         estimate D2E/DX2                !
 ! D102  D(46,20,21,22)        -31.9667         estimate D2E/DX2                !
 ! D103  D(46,20,21,47)         83.101          estimate D2E/DX2                !
 ! D104  D(46,20,21,48)       -147.034          estimate D2E/DX2                !
 ! D105  D(20,21,22,49)          0.0013         estimate D2E/DX2                !
 ! D106  D(20,21,22,50)        119.9986         estimate D2E/DX2                !
 ! D107  D(20,21,22,51)       -119.9972         estimate D2E/DX2                !
 ! D108  D(47,21,22,49)       -115.0669         estimate D2E/DX2                !
 ! D109  D(47,21,22,50)          4.9304         estimate D2E/DX2                !
 ! D110  D(47,21,22,51)        124.9345         estimate D2E/DX2                !
 ! D111  D(48,21,22,49)        115.0687         estimate D2E/DX2                !
 ! D112  D(48,21,22,50)       -124.9339         estimate D2E/DX2                !
 ! D113  D(48,21,22,51)         -4.9298         estimate D2E/DX2                !
 --------------------------------------------------------------------------------
 Trust Radius=3.00D-01 FncErr=1.00D-07 GrdErr=1.00D-07
 Number of steps in this run=    260 maximum allowed number of steps=    306.
 GradGradGradGradGradGradGradGradGradGradGradGradGradGradGradGradGradGrad

 Stoichiometry    C20H29O2(1-)
 Framework group  C1[X(C20H29O2)]
 Deg. of freedom   147
 Full point group                 C1      NOp   1
 Largest Abelian subgroup         C1      NOp   1
 Largest concise Abelian subgroup C1      NOp   1
                         Standard orientation:                         
 ---------------------------------------------------------------------
 Center     Atomic      Atomic             Coordinates (Angstroms)
 Number     Number       Type             X           Y           Z
 ---------------------------------------------------------------------
      1          6           0        5.278104    2.806545   -0.605092
      2          8           0        5.746262    3.885698   -0.187722
      3          8           0        4.136061    2.736755   -1.103915
      4          6           0        6.097167    1.538028   -0.492022
      5          6           0        5.727624    0.683260    0.683426
      6          6           0        4.387562   -0.015293    0.488957
      7          6           0        4.556392   -1.507005    0.658262
      8          6           0        3.830759   -2.397451   -0.019260
      9          6           0        2.761196   -2.009784   -1.015501
     10          6           0        1.848880   -3.201685   -1.228419
     11          6           0        0.517110   -3.197690   -1.058529
     12          6           0       -0.309107   -1.998756   -0.634049
     13          6           0       -0.019879   -1.685533    0.817387
     14          6           0       -0.938799   -1.247175    1.673031
     15          6           0       -2.374741   -1.013241    1.277634
     16          6           0       -2.708295    0.330970    1.844067
     17          6           0       -3.807917    0.989895    1.526042
     18          6           0       -4.850715    0.472877    0.568989
     19          6           0       -5.680345    1.691816    0.204460
     20          6           0       -6.768394    1.676764   -0.551286
     21          6           0       -7.385752    0.446030   -1.185512
     22          6           0       -8.871360    0.648042   -1.253433
     23          1           0        5.860876    0.959118   -1.360315
     24          1           0        7.104292    1.854792   -0.318044
     25          1           0        5.598753    1.351246    1.509344
     26          1           0        6.463793   -0.091726    0.731983
     27          1           0        4.100749    0.148010   -0.528866
     28          1           0        3.751145    0.314059    1.283497
     29          1           0        5.289324   -1.864217    1.351180
     30          1           0        4.014436   -3.437779    0.150477
     31          1           0        2.171756   -1.242403   -0.558715
     32          1           0        3.254042   -1.822929   -1.946636
     33          1           0        2.302710   -4.119588   -1.538995
     34          1           0       -0.003854   -4.115062   -1.237133
     35          1           0       -1.335869   -2.294713   -0.688737
     36          1           0        0.038412   -1.164313   -1.206610
     37          1           0        0.978876   -1.824296    1.175293
     38          1           0       -0.646939   -1.052465    2.683863
     39          1           0       -2.412073   -0.937115    0.210966
     40          1           0       -2.975848   -1.739700    1.783520
     41          1           0       -2.026280    0.777909    2.536923
     42          1           0       -3.967839    1.948044    1.974747
     43          1           0       -5.481970   -0.202547    1.107619
     44          1           0       -4.347265    0.144051   -0.316103
     45          1           0       -5.360609    2.637922    0.588602
     46          1           0       -7.253087    2.613946   -0.729359
     47          1           0       -7.029089    0.400161   -2.193325
     48          1           0       -7.210675   -0.371903   -0.518280
     49          1           0       -9.120711    1.603016   -0.840295
     50          1           0       -9.190699    0.606550   -2.273840
     51          1           0       -9.361884   -0.121389   -0.694584
 ---------------------------------------------------------------------
 Rotational constants (GHZ):      0.3371571      0.0719063      0.0640411
 Standard basis: 6-31G(d) (6D, 7F)
 There are   388 symmetry adapted cartesian basis functions of A   symmetry.
 There are   388 symmetry adapted basis functions of A   symmetry.
   388 basis functions,   732 primitive gaussians,   388 cartesian basis functions
    83 alpha electrons       83 beta electrons
       nuclear repulsion energy      1576.4436915503 Hartrees.
 NAtoms=   51 NActive=   51 NUniq=   51 SFac= 1.00D+00 NAtFMM=   60 NAOKFM=F Big=F
 Integral buffers will be    131072 words long.
 Raffenetti 1 integral format.
 Two-electron integral symmetry is turned on.
 One-electron integrals computed using PRISM.
 NBasis=   388 RedAO= T EigKep=  1.44D-03  NBF=   388
 NBsUse=   388 1.00D-06 EigRej= -1.00D+00 NBFU=   388
 ExpMin= 1.61D-01 ExpMax= 5.48D+03 ExpMxC= 8.25D+02 IAcc=1 IRadAn=         1 AccDes= 0.00D+00
 Harris functional with IExCor=  205 and IRadAn=       1 diagonalized for initial guess.
 HarFok:  IExCor=  205 AccDes= 0.00D+00 IRadAn=         1 IDoV= 1 UseB2=F ITyADJ=14
 ICtDFT=  3500011 ScaDFX=  1.000000  1.000000  1.000000  1.000000
 FoFCou: FMM=F IPFlag=           0 FMFlag=      100000 FMFlg1=           0
         NFxFlg=           0 DoJE=T BraDBF=F KetDBF=T FulRan=T
         wScrn=  0.000000 ICntrl=     500 IOpCl=  0 I1Cent=   200000004 NGrid=           0
         NMat0=    1 NMatS0=      1 NMatT0=    0 NMatD0=    1 NMtDS0=    0 NMtDT0=    0
 Petite list used in FoFCou.
 Requested convergence on RMS density matrix=1.00D-08 within 128 cycles.
 Requested convergence on MAX density matrix=1.00D-06.
 Requested convergence on             energy=1.00D-06.
 No special actions if energy rises.
 Integral accuracy reduced to 1.0D-05 until final iterations.
 Initial convergence to 1.0D-05 achieved.  Increase integral accuracy.
 SCF Done:  E(RHF) =  -923.802681772     A.U. after   14 cycles
            NFock= 14  Conv=0.42D-08     -V/T= 1.9996

 **********************************************************************

            Population analysis using the SCF density.

 **********************************************************************

 Orbital symmetries:
 BldTbl:  Degeneracy threshold= 1.00D-02
       Occupied  (A) (A) (A) (A) (A) (A) (A) (A) (A) (A) (A) (A)
                 (A) (A) (A) (A) (A) (A) (A) (A) (A) (A) (A) (A)
                 (A) (A) (A) (A) (A) (A) (A) (A) (A) (A) (A) (A)
                 (A) (A) (A) (A) (A) (A) (A) (A) (A) (A) (A) (A)
                 (A) (A) (A) (A) (A) (A) (A) (A) (A) (A) (A) (A)
                 (A) (A) (A) (A) (A) (A) (A) (A) (A) (A) (A) (A)
                 (A) (A) (A) (A) (A) (A) (A) (A) (A) (A) (A)
       Virtual   (A) (A) (A) (A) (A) (A) (A) (A) (A) (A) (A) (A)
                 (A) (A) (A) (A) (A) (A) (A) (A) (A) (A) (A) (A)
                 (A) (A) (A) (A) (A) (A) (A) (A) (A) (A) (A) (A)
                 (A) (A) (A) (A) (A) (A) (A) (A) (A) (A) (A) (A)
                 (A) (A) (A) (A) (A) (A) (A) (A) (A) (A) (A) (A)
                 (A) (A) (A) (A) (A) (A) (A) (A) (A) (A) (A) (A)
                 (A) (A) (A) (A) (A) (A) (A) (A) (A) (A) (A) (A)
                 (A) (A) (A) (A) (A) (A) (A) (A) (A) (A) (A) (A)
                 (A) (A) (A) (A) (A) (A) (A) (A) (A) (A) (A) (A)
                 (A) (A) (A) (A) (A) (A) (A) (A) (A) (A) (A) (A)
                 (A) (A) (A) (A) (A) (A) (A) (A) (A) (A) (A) (A)
                 (A) (A) (A) (A) (A) (A) (A) (A) (A) (A) (A) (A)
                 (A) (A) (A) (A) (A) (A) (A) (A) (A) (A) (A) (A)
                 (A) (A) (A) (A) (A) (A) (A) (A) (A) (A) (A) (A)
                 (A) (A) (A) (A) (A) (A) (A) (A) (A) (A) (A) (A)
                 (A) (A) (A) (A) (A) (A) (A) (A) (A) (A) (A) (A)
                 (A) (A) (A) (A) (A) (A) (A) (A) (A) (A) (A) (A)
                 (A) (A) (A) (A) (A) (A) (A) (A) (A) (A) (A) (A)
                 (A) (A) (A) (A) (A) (A) (A) (A) (A) (A) (A) (A)
                 (A) (A) (A) (A) (A) (A) (A) (A) (A) (A) (A) (A)
                 (A) (A) (A) (A) (A) (A) (A) (A) (A) (A) (A) (A)
                 (A) (A) (A) (A) (A) (A) (A) (A) (A) (A) (A) (A)
                 (A) (A) (A) (A) (A) (A) (A) (A) (A) (A) (A) (A)
                 (A) (A) (A) (A) (A) (A) (A) (A) (A) (A) (A) (A)
                 (A) (A) (A) (A) (A) (A) (A) (A) (A) (A) (A) (A)
                 (A) (A) (A) (A) (A)
 The electronic state is 1-A.
 Alpha  occ. eigenvalues --  -20.26303 -20.26276 -11.16641 -11.16476 -11.16202
 Alpha  occ. eigenvalues --  -11.16022 -11.15713 -11.15310 -11.15021 -11.14843
 Alpha  occ. eigenvalues --  -11.14730 -11.14332 -11.14329 -11.14171 -11.14159
 Alpha  occ. eigenvalues --  -11.13019 -11.11759 -11.11496 -11.10808 -11.08322
 Alpha  occ. eigenvalues --  -11.07428 -11.04194  -1.15016  -1.05528  -1.03852
 Alpha  occ. eigenvalues --   -1.03214  -1.02013  -0.99800  -0.97701  -0.95296
 Alpha  occ. eigenvalues --   -0.92720  -0.89787  -0.86641  -0.83538  -0.81062
 Alpha  occ. eigenvalues --   -0.79364  -0.78164  -0.68371  -0.68146  -0.67398
 Alpha  occ. eigenvalues --   -0.66775  -0.63981  -0.62824  -0.60434  -0.59679
 Alpha  occ. eigenvalues --   -0.57180  -0.56611  -0.56181  -0.54663  -0.54166
 Alpha  occ. eigenvalues --   -0.52512  -0.52414  -0.51428  -0.50589  -0.49165
 Alpha  occ. eigenvalues --   -0.48667  -0.47982  -0.47336  -0.46633  -0.46133
 Alpha  occ. eigenvalues --   -0.45032  -0.43842  -0.43188  -0.42896  -0.41829
 Alpha  occ. eigenvalues --   -0.40811  -0.40425  -0.39454  -0.38922  -0.38568
 Alpha  occ. eigenvalues --   -0.36242  -0.35308  -0.34521  -0.32588  -0.29802
 Alpha  occ. eigenvalues --   -0.29506  -0.27721  -0.26849  -0.25843  -0.23755
 Alpha  occ. eigenvalues --   -0.18058  -0.16922  -0.15923
 Alpha virt. eigenvalues --    0.22949   0.24516   0.26117   0.27789   0.28326
 Alpha virt. eigenvalues --    0.29828   0.30171   0.31691   0.32835   0.33004
 Alpha virt. eigenvalues --    0.33294   0.34760   0.35126   0.35299   0.36608
 Alpha virt. eigenvalues --    0.37084   0.37567   0.37744   0.39060   0.39458
 Alpha virt. eigenvalues --    0.39952   0.40282   0.40441   0.41400   0.42475
 Alpha virt. eigenvalues --    0.43077   0.43825   0.44236   0.44699   0.45717
 Alpha virt. eigenvalues --    0.46787   0.47071   0.47591   0.47847   0.48716
 Alpha virt. eigenvalues --    0.49019   0.49830   0.50306   0.51295   0.53025
 Alpha virt. eigenvalues --    0.53142   0.55317   0.56465   0.58147   0.60224
 Alpha virt. eigenvalues --    0.61382   0.62127   0.64225   0.64511   0.65225
 Alpha virt. eigenvalues --    0.66262   0.66842   0.70633   0.71960   0.75261
 Alpha virt. eigenvalues --    0.76318   0.77148   0.77766   0.79361   0.81253
 Alpha virt. eigenvalues --    0.82239   0.83384   0.84241   0.85216   0.85866
 Alpha virt. eigenvalues --    0.86530   0.86895   0.88344   0.88980   0.89504
 Alpha virt. eigenvalues --    0.89805   0.90354   0.91518   0.91975   0.92652
 Alpha virt. eigenvalues --    0.93618   0.93692   0.93910   0.95596   0.97510
 Alpha virt. eigenvalues --    0.98000   0.98725   0.99562   1.00604   1.02239
 Alpha virt. eigenvalues --    1.02808   1.03290   1.03851   1.05207   1.06149
 Alpha virt. eigenvalues --    1.06577   1.07314   1.08176   1.09207   1.09359
 Alpha virt. eigenvalues --    1.10704   1.11042   1.11442   1.12496   1.12927
 Alpha virt. eigenvalues --    1.13571   1.14748   1.16419   1.16970   1.19086
 Alpha virt. eigenvalues --    1.20551   1.20624   1.20926   1.21117   1.21572
 Alpha virt. eigenvalues --    1.22050   1.22376   1.22658   1.23213   1.23768
 Alpha virt. eigenvalues --    1.24008   1.24895   1.25146   1.25250   1.25575
 Alpha virt. eigenvalues --    1.26061   1.27005   1.27449   1.27566   1.28395
 Alpha virt. eigenvalues --    1.28672   1.29879   1.30244   1.30744   1.31426
 Alpha virt. eigenvalues --    1.31832   1.32895   1.33295   1.33772   1.34029
 Alpha virt. eigenvalues --    1.35087   1.35467   1.36172   1.36843   1.37557
 Alpha virt. eigenvalues --    1.39136   1.39346   1.40477   1.41347   1.42341
 Alpha virt. eigenvalues --    1.45123   1.46980   1.47583   1.48163   1.49676
 Alpha virt. eigenvalues --    1.50461   1.52943   1.53740   1.54331   1.55016
 Alpha virt. eigenvalues --    1.59784   1.60264   1.62565   1.63983   1.64727
 Alpha virt. eigenvalues --    1.65907   1.67546   1.68444   1.69129   1.71231
 Alpha virt. eigenvalues --    1.73681   1.76260   1.78660   1.79068   1.82546
 Alpha virt. eigenvalues --    1.84646   1.86330   1.86889   1.89473   1.90054
 Alpha virt. eigenvalues --    1.92202   1.93478   1.95736   1.96576   1.97392
 Alpha virt. eigenvalues --    2.00994   2.01997   2.03705   2.04924   2.05910
 Alpha virt. eigenvalues --    2.07049   2.10206   2.11821   2.14857   2.15587
 Alpha virt. eigenvalues --    2.16086   2.19633   2.21779   2.23846   2.24354
 Alpha virt. eigenvalues --    2.26449   2.27563   2.29496   2.30002   2.32473
 Alpha virt. eigenvalues --    2.33354   2.34534   2.36698   2.37431   2.38080
 Alpha virt. eigenvalues --    2.38282   2.39111   2.39472   2.39761   2.40515
 Alpha virt. eigenvalues --    2.40659   2.40987   2.41779   2.43687   2.44092
 Alpha virt. eigenvalues --    2.45966   2.47894   2.48552   2.48774   2.49464
 Alpha virt. eigenvalues --    2.50496   2.51741   2.54220   2.54336   2.55383
 Alpha virt. eigenvalues --    2.55889   2.56358   2.57852   2.59379   2.60418
 Alpha virt. eigenvalues --    2.61610   2.62361   2.63703   2.64508   2.65719
 Alpha virt. eigenvalues --    2.66146   2.68105   2.70784   2.71624   2.74207
 Alpha virt. eigenvalues --    2.74899   2.76043   2.78491   2.80811   2.81722
 Alpha virt. eigenvalues --    2.85004   2.85600   2.87773   2.89083   2.90826
 Alpha virt. eigenvalues --    2.91920   2.93123   2.94393   2.96122   2.97247
 Alpha virt. eigenvalues --    2.97517   2.98706   3.00190   3.01262   3.01620
 Alpha virt. eigenvalues --    3.04255   3.05266   3.06040   3.08500   3.09111
 Alpha virt. eigenvalues --    3.09135   3.16596   3.23952   3.25388   3.28488
 Alpha virt. eigenvalues --    3.29004   3.30001   3.34236   3.35249   3.41085
 Alpha virt. eigenvalues --    3.42706   3.47391   3.51686   3.52703   3.53060
 Alpha virt. eigenvalues --    3.54459   3.58051   3.76028   4.58816   4.61710
 Alpha virt. eigenvalues --    4.63735   4.64725   4.67072   4.68884   4.70219
 Alpha virt. eigenvalues --    4.75424   4.76998   4.77882   4.79687   4.82502
 Alpha virt. eigenvalues --    4.85548   4.87277   4.90114   4.94284   4.97920
 Alpha virt. eigenvalues --    5.02420   5.06251   5.12087   5.13711   5.20735
          Condensed to atoms (all electrons):
 Mulliken charges:
               1
     1  C    0.707824
     2  O   -0.766434
     3  O   -0.763732
     4  C   -0.389458
     5  C   -0.324052
     6  C   -0.343722
     7  C   -0.177656
     8  C   -0.216096
     9  C   -0.363344
    10  C   -0.170397
    11  C   -0.206013
    12  C   -0.390534
    13  C   -0.171744
    14  C   -0.202246
    15  C   -0.370441
    16  C   -0.181883
    17  C   -0.201091
    18  C   -0.349244
    19  C   -0.189130
    20  C   -0.206834
    21  C   -0.331311
    22  C   -0.490945
    23  H    0.135426
    24  H    0.145439
    25  H    0.170553
    26  H    0.130543
    27  H    0.227196
    28  H    0.168827
    29  H    0.157377
    30  H    0.148177
    31  H    0.207823
    32  H    0.197793
    33  H    0.162384
    34  H    0.157879
    35  H    0.173612
    36  H    0.217807
    37  H    0.204458
    38  H    0.177484
    39  H    0.198369
    40  H    0.181214
    41  H    0.187585
    42  H    0.173425
    43  H    0.187427
    44  H    0.199894
    45  H    0.178487
    46  H    0.167983
    47  H    0.184481
    48  H    0.177998
    49  H    0.164918
    50  H    0.156212
    51  H    0.157711
 Sum of Mulliken charges =  -1.00000
 Mulliken charges with hydrogens summed into heavy atoms:
               1
     1  C    0.707824
     2  O   -0.766434
     3  O   -0.763732
     4  C   -0.108594
     5  C   -0.022956
     6  C    0.052301
     7  C   -0.020279
     8  C   -0.067918
     9  C    0.042272
    10  C   -0.008013
    11  C   -0.048134
    12  C    0.000885
    13  C    0.032714
    14  C   -0.024762
    15  C    0.009142
    16  C    0.005702
    17  C   -0.027666
    18  C    0.038078
    19  C   -0.010643
    20  C   -0.038852
    21  C    0.031168
    22  C   -0.012104
 DipInt: DoE/N= T F RetVal/Mat= T F Init=T NMatP=  1 IDeriv=0 Min/MaxMlt=  0  4
 Entering OneElI...
 OneElI was handed    33167953 working-precision words.
 Multipole integrals L=0 to 4 MinM= 0 MaxM= 0.
 Requested accuracy = 0.1000D-12
 PrtBox:  NBox=     1 Levels=  1 BoxLen=   35.86 SMaxX=       31.12
          Shift=           17.691397            7.784893            4.296935
 Box      1 Number                   0 centers from      1 to    146:
 ShPair: Thresh= 1.00D-13 NBox=     1 BxSize= 3.59D+01 RnKept= 2.14D+01
         NSMCal=                10731 NSMKep=                6373
 PrsmSu:  NPrtUS=   1 ThrOK=F IAlg=1 NPAlg=1 LenDen=           0.
 Prism:   IPart=     0 DynPar=F LinDyn=F Incr=          63.
 PRISM was handed    32619649 working-precision words and  6373 shell-pairs
 IPart=  0 NShTot=        6373 NBatch=          50 AvBLen=       127.5
 PrSmSu:  NxtVal=             64.
 Electronic moments (au):
       -166.00000000         -8.58356299         -5.82166310          1.03840216
     -13553.29152498      -2431.77253425       -769.39438020        -55.67223943
          9.60932625          7.78311366      41982.46874588       -624.60909728
       -439.20469050      -9936.68335914     -24599.58070729       8946.27388648
       1811.59303217        378.84890120       2003.16468679        274.22509170
   -2052629.33879227     -80502.84176738      -8588.31162071       9927.39228885
    -136860.57955440     -31876.17037749      -3508.96373633        672.50984144
       -333.19006354    -161014.79124169     -54694.71490918      -8705.79884107
      23276.17226487      10773.16634228       2509.41444100
 Electronic spatial extent (au):  <R**2>=          16754.4584
 DipInt: DoE/N= F T RetVal/Mat= T F Init=T NMatP=  1 IDeriv=0 Min/MaxMlt=  0  4
 Nuclear    moments (au):
        165.00000000          0.00000000          0.00000000          0.00000000
      13363.27639218       2282.47131394        664.23847385          0.00000000
          0.00000000          0.00000000     -42740.43829703        356.77755076
        442.49803199       9496.65349810      24014.85769328      -8901.95089295
      -1817.20532455       -373.87403993      -1969.96144401       -219.19200043
    1992003.07571924      69603.22604920       5773.73250637     -15324.52535605
     137469.88723793      28853.93653199       3790.64328559       -579.06000818
        311.01288612     146926.83685351      45781.40063121       6695.72485852
     -22967.04563924     -10538.51651361      -2514.54547331
 Total      moments (au):
         -1.00000000         -8.58356299         -5.82166310          1.03840216
       -190.01513280       -149.30122031       -105.15590635        -55.67223943
          9.60932625          7.78311366       -757.96955115       -267.83154652
          3.29334149       -440.02986104       -584.72301401         44.32299353
         -5.61229237          4.97486127         33.20324278         55.03309127
     -60626.26307302     -10899.61571818      -2814.57911433      -5397.13306720
        609.30768353      -3022.23384550        281.67954926         93.44983327
        -22.17717742     -14087.95438819      -8913.31427797      -2010.07398255
        309.12662563        234.64982867         -5.13103230
 Traceless Quadrup. (au):
        -41.85771298         -1.14380049         43.00151347        -55.67223943
          9.60932625          7.78311366
 Charge=             -1.0000 electrons
 Dipole moment (field-independent basis, Debye):
    X=            -21.8172    Y=            -14.7972    Z=              2.6394  Tot=             26.4937
 Quadrupole moment (field-independent basis, Debye-Ang):
   XX=           -255.5768   YY=           -200.8152   ZZ=           -141.4383
   XY=            -74.8811   XZ=             12.9249   YZ=             10.4686
 Traceless Quadrupole moment (field-independent basis, Debye-Ang):
   XX=            -56.3001   YY=             -1.5385   ZZ=             57.8385
   XY=            -74.8811   XZ=             12.9249   YZ=             10.4686
 Octapole moment (field-independent basis, Debye-Ang**2):
  XXX=           -539.4935  YYY=           -190.6322  ZZZ=              2.3441  XYY=           -313.1963
  XXY=           -416.1833  XXZ=             31.5474  XZZ=             -3.9946  YZZ=              3.5409
  YYZ=             23.6328  XYZ=             39.1704
 Hexadecapole moment (field-independent basis, Debye-Ang**3):
 XXXX=         -22834.7563 YYYY=          -4105.3177 ZZZZ=          -1060.1054 XXXY=          -2032.8190
 XXXZ=            229.4945 YYYX=          -1138.3181 YYYZ=            106.0940 ZZZX=             35.1977
 ZZZY=             -8.3530 XXYY=          -5306.1988 XXZZ=          -3357.1813 YYZZ=           -757.0902
 XXYZ=            116.4319 YYXZ=             88.3804 ZZXY=             -1.9326
 N-N= 1.576443691550D+03 E-N=-5.328871010225D+03  KE= 9.241487906413D+02
 Entering OneElI...
 OneElI was handed    33241756 working-precision words.
 Calculate electrostatic properties
    NBasis =   388  MinDer = 0  MaxDer = 0
    NGrid  =    51  NMatD  =   1
 Requested accuracy = 0.1000D-12
 PrtBox:  NBox=     2 Levels=  1 BoxLen=   29.89 SMaxX=       31.12
          Shift=           17.691397            7.784893            4.296935
 Box      1 Number                   0 centers from      1 to    142:
 Box      2 Number                   4 centers from    143 to    146:
 ShPair: Thresh= 1.00D-13 NBox=     2 BxSize= 2.99D+01 RnKept= 1.82D+01
         NSMCal=                10731 NSMKep=                5389
 PrsmSu:  NPrtUS=   2 ThrOK=T IAlg=1 NPAlg=1 LenDen=           0.
 Prism:   IPart=     0 DynPar=F LinDyn=F Incr=         512.
 PRISM was handed    16301952 working-precision words and  5389 shell-pairs
 PRISM was handed    16301952 working-precision words and  5389 shell-pairs
 IPart=  1 NShTot=      136986 NBatch=        2686 AvBLen=        51.0
 IPart=  0 NShTot=      137853 NBatch=        2703 AvBLen=        51.0
 PrSmSu:  NxtVal=           1025.
 --------------------------------------------------------
       Center         ----      EFG at Nuclei      ----
                      3XX-RR        3YY-RR        3ZZ-RR
 --------------------------------------------------------
     1   Atom        0.158746      0.245359     -0.404105
     2   Atom        0.949025     -0.592795     -0.356230
     3   Atom       -0.946489      1.376544     -0.430055
     4   Atom        0.004133      0.064767     -0.068900
     5   Atom       -0.059258      0.018563      0.040695
     6   Atom        0.030073     -0.091444      0.061371
     7   Atom       -0.102226      0.226143     -0.123917
     8   Atom       -0.057684      0.120981     -0.063297
     9   Atom       -0.013863     -0.006256      0.020120
    10   Atom        0.227574      0.066770     -0.294344
    11   Atom        0.197846      0.036962     -0.234808
    12   Atom        0.013045      0.001990     -0.015035
    13   Atom        0.175654     -0.278432      0.102778
    14   Atom        0.113180     -0.225110      0.111930
    15   Atom       -0.006703     -0.019149      0.025852
    16   Atom        0.108602      0.037188     -0.145791
    17   Atom        0.095884      0.039672     -0.135555
    18   Atom       -0.000662     -0.013890      0.014551
    19   Atom        0.054010      0.057064     -0.111075
    20   Atom        0.077036      0.039343     -0.116379
    21   Atom       -0.010874     -0.012377      0.023250
    22   Atom       -0.012843      0.008342      0.004500
    23   Atom        0.156738      0.016014     -0.172753
    24   Atom       -0.293144      0.135988      0.157156
    25   Atom        0.160885     -0.013115     -0.147770
    26   Atom       -0.078457     -0.097244      0.175701
    27   Atom        0.119848      0.155762     -0.275610
    28   Atom       -0.019165      0.120297     -0.101132
    29   Atom       -0.066137      0.107047     -0.040911
    30   Atom        0.157093     -0.319133      0.162040
    31   Atom        0.007162     -0.095431      0.088268
    32   Atom        0.067288      0.151344     -0.218632
    33   Atom        0.069670     -0.207785      0.138114
    34   Atom        0.038251     -0.208740      0.170489
    35   Atom       -0.301858      0.133254      0.168603
    36   Atom        0.120484     -0.140078      0.019594
    37   Atom       -0.271635      0.170397      0.101238
    38   Atom        0.124705      0.163034     -0.287738
    39   Atom        0.163739      0.167527     -0.331266
    40   Atom        0.003673     -0.068838      0.065165
    41   Atom       -0.037700      0.075304     -0.037604
    42   Atom        0.150908     -0.235764      0.084856
    43   Atom       -0.006991     -0.042912      0.049903
    44   Atom        0.059947      0.116801     -0.176748
    45   Atom        0.119395     -0.228053      0.108658
    46   Atom        0.059535     -0.221727      0.162191
    47   Atom        0.108428      0.170646     -0.279074
    48   Atom        0.148979     -0.134808     -0.014171
    49   Atom        0.133935     -0.234663      0.100728
    50   Atom        0.119530      0.176059     -0.295589
    51   Atom        0.056824     -0.092118      0.035293
 --------------------------------------------------------
                        XY            XZ            YZ
 --------------------------------------------------------
     1   Atom       -0.024212      0.312265      0.140619
     2   Atom       -0.913503      0.369244     -0.391534
     3   Atom       -0.198315     -0.289621      0.325954
     4   Atom       -0.038755      0.028207     -0.001803
     5   Atom       -0.000544     -0.023304     -0.007043
     6   Atom        0.012263      0.024470      0.000084
     7   Atom        0.050974      0.269530      0.054208
     8   Atom        0.066821      0.177370      0.068143
     9   Atom       -0.051225     -0.037760      0.002782
    10   Atom        0.024282     -0.060064      0.107523
    11   Atom        0.023318     -0.062425      0.085428
    12   Atom        0.030034     -0.014964     -0.037877
    13   Atom       -0.119038     -0.050238      0.112202
    14   Atom       -0.099681     -0.065896      0.110436
    15   Atom        0.005375     -0.007836     -0.007941
    16   Atom       -0.152884      0.186899      0.113838
    17   Atom       -0.160855      0.150992      0.077255
    18   Atom        0.018713     -0.025028      0.014782
    19   Atom       -0.014149      0.264148      0.049827
    20   Atom       -0.028526      0.250583      0.034026
    21   Atom       -0.020616     -0.005773     -0.019290
    22   Atom        0.014656      0.004951      0.006090
    23   Atom       -0.060315     -0.078231     -0.226658
    24   Atom       -0.137245     -0.069568     -0.015130
    25   Atom        0.027661      0.042141     -0.243761
    26   Atom        0.250694     -0.022403      0.026254
    27   Atom        0.012763     -0.135266      0.066846
    28   Atom        0.094647      0.230168     -0.118636
    29   Atom        0.114874     -0.233225      0.110616
    30   Atom        0.083343     -0.028333      0.075720
    31   Atom        0.196760      0.111135     -0.150849
    32   Atom       -0.046436      0.201841      0.083557
    33   Atom        0.183223      0.064317     -0.130775
    34   Atom       -0.211653     -0.038048     -0.078049
    35   Atom       -0.122975     -0.029614     -0.016666
    36   Atom       -0.118688      0.082357      0.216296
    37   Atom        0.063054     -0.151482      0.016206
    38   Atom       -0.016678     -0.127396     -0.092702
    39   Atom        0.009179     -0.025892      0.024558
    40   Atom       -0.201601      0.132886      0.160392
    41   Atom       -0.123657     -0.214557     -0.141645
    42   Atom        0.076811      0.019640     -0.193855
    43   Atom       -0.195447      0.145605      0.163255
    44   Atom        0.080048      0.191464     -0.138238
    45   Atom       -0.128005     -0.068163     -0.159878
    46   Atom        0.200137     -0.051050      0.071747
    47   Atom        0.011233      0.162210     -0.030781
    48   Atom        0.066409     -0.056672      0.240480
    49   Atom        0.106653      0.045579     -0.177380
    50   Atom       -0.004695     -0.147726     -0.019174
    51   Atom       -0.169338      0.123348      0.195642
 --------------------------------------------------------


 ---------------------------------------------------------------------------------
              Nuclear Quadrupole Coupling Constant in Principal Axis System
 ---------------------------------------------------------------------------------

       Atom             a.u.   MegaHertz   Gauss  10(-4) cm-1        Axes


 ---------------------------------------------------------------------------------

 No NMR shielding tensors so no spin-rotation constants.
 Leave Link  601 at Thu Feb 15 12:34:20 2018, MaxMem=    33554432 cpu:         0.5
 FitSet:  NAtFit=    51 NAtPot=    51 NAtFrz=     0 MDM=    55 TotChg=  -1.00000
 Merz-Kollman atomic radii used.
 Atom Element Radius
    1     6    1.50
    2     8    1.40
    3     8    1.40
    4     6    1.50
    5     6    1.50
    6     6    1.50
    7     6    1.50
    8     6    1.50
    9     6    1.50
   10     6    1.50
   11     6    1.50
   12     6    1.50
   13     6    1.50
   14     6    1.50
   15     6    1.50
   16     6    1.50
   17     6    1.50
   18     6    1.50
   19     6    1.50
   20     6    1.50
   21     6    1.50
   22     6    1.50
   23     1    1.20
   24     1    1.20
   25     1    1.20
   26     1    1.20
   27     1    1.20
   28     1    1.20
   29     1    1.20
   30     1    1.20
   31     1    1.20
   32     1    1.20
   33     1    1.20
   34     1    1.20
   35     1    1.20
   36     1    1.20
   37     1    1.20
   38     1    1.20
   39     1    1.20
   40     1    1.20
   41     1    1.20
   42     1    1.20
   43     1    1.20
   44     1    1.20
   45     1    1.20
   46     1    1.20
   47     1    1.20
   48     1    1.20
   49     1    1.20
   50     1    1.20
   51     1    1.20
 Generate VDW surfaces: Layer= 4 Dens= 6 Start= 1.400 Inc= 0.200

 **********************************************************************

            Electrostatic Properties Using The SCF Density

 **********************************************************************

       Atomic Center    1 is at   5.278104  2.806545 -0.605092
       Atomic Center    2 is at   5.746262  3.885698 -0.187722
       Atomic Center    3 is at   4.136061  2.736755 -1.103915
       Atomic Center    4 is at   6.097167  1.538028 -0.492022
       Atomic Center    5 is at   5.727624  0.683260  0.683426
       Atomic Center    6 is at   4.387562 -0.015293  0.488957
       Atomic Center    7 is at   4.556392 -1.507005  0.658262
       Atomic Center    8 is at   3.830759 -2.397451 -0.019260
       Atomic Center    9 is at   2.761196 -2.009784 -1.015501
       Atomic Center   10 is at   1.848880 -3.201685 -1.228419
       Atomic Center   11 is at   0.517110 -3.197690 -1.058529
       Atomic Center   12 is at  -0.309107 -1.998756 -0.634049
       Atomic Center   13 is at  -0.019879 -1.685533  0.817387
       Atomic Center   14 is at  -0.938799 -1.247175  1.673031
       Atomic Center   15 is at  -2.374741 -1.013241  1.277634
       Atomic Center   16 is at  -2.708295  0.330970  1.844067
       Atomic Center   17 is at  -3.807917  0.989895  1.526042
       Atomic Center   18 is at  -4.850715  0.472877  0.568989
       Atomic Center   19 is at  -5.680345  1.691816  0.204460
       Atomic Center   20 is at  -6.768394  1.676764 -0.551286
       Atomic Center   21 is at  -7.385752  0.446030 -1.185512
       Atomic Center   22 is at  -8.871360  0.648042 -1.253433
       Atomic Center   23 is at   5.860876  0.959118 -1.360315
       Atomic Center   24 is at   7.104292  1.854792 -0.318044
       Atomic Center   25 is at   5.598753  1.351246  1.509344
       Atomic Center   26 is at   6.463793 -0.091726  0.731983
       Atomic Center   27 is at   4.100749  0.148010 -0.528866
       Atomic Center   28 is at   3.751145  0.314059  1.283497
       Atomic Center   29 is at   5.289324 -1.864217  1.351180
       Atomic Center   30 is at   4.014436 -3.437779  0.150477
       Atomic Center   31 is at   2.171756 -1.242403 -0.558715
       Atomic Center   32 is at   3.254042 -1.822929 -1.946636
       Atomic Center   33 is at   2.302710 -4.119588 -1.538995
       Atomic Center   34 is at  -0.003854 -4.115062 -1.237133
       Atomic Center   35 is at  -1.335869 -2.294713 -0.688737
       Atomic Center   36 is at   0.038412 -1.164313 -1.206610
       Atomic Center   37 is at   0.978876 -1.824296  1.175293
       Atomic Center   38 is at  -0.646939 -1.052465  2.683863
       Atomic Center   39 is at  -2.412073 -0.937115  0.210966
       Atomic Center   40 is at  -2.975848 -1.739700  1.783520
       Atomic Center   41 is at  -2.026280  0.777909  2.536923
       Atomic Center   42 is at  -3.967839  1.948044  1.974747
       Atomic Center   43 is at  -5.481970 -0.202547  1.107619
       Atomic Center   44 is at  -4.347265  0.144051 -0.316103
       Atomic Center   45 is at  -5.360609  2.637922  0.588602
       Atomic Center   46 is at  -7.253087  2.613946 -0.729359
       Atomic Center   47 is at  -7.029089  0.400161 -2.193325
       Atomic Center   48 is at  -7.210675 -0.371903 -0.518280
       Atomic Center   49 is at  -9.120711  1.603016 -0.840295
       Atomic Center   50 is at  -9.190699  0.606550 -2.273840
       Atomic Center   51 is at  -9.361884 -0.121389 -0.694584
      ESP Fit Center   52 is at   4.582135  3.208363  1.335055
      ESP Fit Center   53 is at   4.474469  2.806545  1.335055
      ESP Fit Center   54 is at   4.286158  3.420732  1.140994
      ESP Fit Center   55 is at   4.131272  3.020925  1.140994
      ESP Fit Center   56 is at   4.131272  2.592165  1.140994
      ESP Fit Center   57 is at   4.028906  3.609356  0.879832
      ESP Fit Center   58 is at   3.853330  3.224897  0.879832
      ESP Fit Center   59 is at   3.793180  2.806545  0.879832
      ESP Fit Center   60 is at   3.853330  2.388194  0.879832
      ESP Fit Center   61 is at   7.172891  3.223619 -1.408727
      ESP Fit Center   62 is at   6.973452  3.224411 -1.771789
      ESP Fit Center   63 is at   6.763028  2.806545 -2.090016
      ESP Fit Center   64 is at   6.702878  3.224897 -2.090016
      ESP Fit Center   65 is at   6.527302  3.609356 -2.090016
      ESP Fit Center   66 is at   6.250523  3.928776 -2.090016
      ESP Fit Center   67 is at   5.066777  4.276355 -2.090016
      ESP Fit Center   68 is at   6.444801  2.806545 -2.351178
      ESP Fit Center   69 is at   6.366017  3.228005 -2.351178
      ESP Fit Center   70 is at   6.140304  3.592544 -2.351178
      ESP Fit Center   71 is at   5.798146  3.850930 -2.351178
      ESP Fit Center   72 is at   5.385753  3.968266 -2.351178
      ESP Fit Center   73 is at   6.081739  2.806545 -2.545239
      ESP Fit Center   74 is at   5.974072  3.208363 -2.545239
      ESP Fit Center   75 is at   5.679922  3.502514 -2.545239
      ESP Fit Center   76 is at   5.278104  3.610180 -2.545239
      ESP Fit Center   77 is at   5.278104  2.002910 -2.545239
      ESP Fit Center   78 is at   5.974072  2.404728 -2.545239
      ESP Fit Center   79 is at   5.687794  2.806545 -2.664741
      ESP Fit Center   80 is at   5.482949  3.161347 -2.664741
      ESP Fit Center   81 is at   5.482949  2.451743 -2.664741
      ESP Fit Center   82 is at   5.278104  2.806545 -2.705092
      ESP Fit Center   83 is at   5.746262  3.885698  1.772278
      ESP Fit Center   84 is at   6.153769  3.885698  1.729447
      ESP Fit Center   85 is at   5.950016  4.238610  1.729447
      ESP Fit Center   86 is at   5.542509  4.238610  1.729447
      ESP Fit Center   87 is at   5.338755  3.885698  1.729447
      ESP Fit Center   88 is at   5.542509  3.532787  1.729447
      ESP Fit Center   89 is at   5.950016  3.532787  1.729447
      ESP Fit Center   90 is at   6.543466  3.885698  1.602827
      ESP Fit Center   91 is at   6.436661  4.284300  1.602827
      ESP Fit Center   92 is at   6.144864  4.576097  1.602827
      ESP Fit Center   93 is at   5.746262  4.682902  1.602827
      ESP Fit Center   94 is at   5.347660  4.576097  1.602827
      ESP Fit Center   95 is at   5.055864  4.284300  1.602827
      ESP Fit Center   96 is at   4.949059  3.885698  1.602827
      ESP Fit Center   97 is at   5.055864  3.487097  1.602827
      ESP Fit Center   98 is at   5.347660  3.195300  1.602827
      ESP Fit Center   99 is at   5.746262  3.088495  1.602827
      ESP Fit Center  100 is at   6.144864  3.195300  1.602827
      ESP Fit Center  101 is at   6.436661  3.487097  1.602827
      ESP Fit Center  102 is at   6.898321  3.885698  1.397951
      ESP Fit Center  103 is at   6.820525  4.301870  1.397951
      ESP Fit Center  104 is at   6.597644  4.661836  1.397951
      ESP Fit Center  105 is at   6.259779  4.916979  1.397951
      ESP Fit Center  106 is at   5.852561  5.032843  1.397951
      ESP Fit Center  107 is at   5.430986  4.993778  1.397951
      ESP Fit Center  108 is at   5.051992  4.805061  1.397951
      ESP Fit Center  109 is at   4.766762  4.492179  1.397951
      ESP Fit Center  110 is at   4.613819  4.097389  1.397951
      ESP Fit Center  111 is at   4.613819  3.674008  1.397951
      ESP Fit Center  112 is at   4.766762  3.279218  1.397951
      ESP Fit Center  113 is at   6.597644  3.109561  1.397951
      ESP Fit Center  114 is at   6.820525  3.469527  1.397951
      ESP Fit Center  115 is at   7.202826  3.885698  1.123774
      ESP Fit Center  116 is at   7.143825  4.296060  1.123774
      ESP Fit Center  117 is at   6.971602  4.673176  1.123774
      ESP Fit Center  118 is at   6.700109  4.986496  1.123774
      ESP Fit Center  119 is at   6.351341  5.210636  1.123774
      ESP Fit Center  120 is at   5.953553  5.327437  1.123774
      ESP Fit Center  121 is at   5.538972  5.327437  1.123774
      ESP Fit Center  122 is at   5.141184  5.210636  1.123774
      ESP Fit Center  123 is at   4.792416  4.986496  1.123774
      ESP Fit Center  124 is at   4.520923  4.673176  1.123774
      ESP Fit Center  125 is at   4.348700  4.296060  1.123774
      ESP Fit Center  126 is at   4.289699  3.885698  1.123774
      ESP Fit Center  127 is at   6.700109  2.784901  1.123774
      ESP Fit Center  128 is at   6.971602  3.098221  1.123774
      ESP Fit Center  129 is at   7.143825  3.475337  1.123774
      ESP Fit Center  130 is at   7.443672  3.885698  0.792278
      ESP Fit Center  131 is at   7.390345  4.307827  0.792278
      ESP Fit Center  132 is at   7.233714  4.703432  0.792278
      ESP Fit Center  133 is at   6.983621  5.047655  0.792278
      ESP Fit Center  134 is at   6.655780  5.318869  0.792278
      ESP Fit Center  135 is at   6.270791  5.500031  0.792278
      ESP Fit Center  136 is at   5.852844  5.579759  0.792278
      ESP Fit Center  137 is at   5.428199  5.553042  0.792278
      ESP Fit Center  138 is at   5.023540  5.421561  0.792278
      ESP Fit Center  139 is at   4.664293  5.193575  0.792278
      ESP Fit Center  140 is at   4.373029  4.883411  0.792278
      ESP Fit Center  141 is at   4.168051  4.510557  0.792278
      ESP Fit Center  142 is at   4.062237  4.098440  0.792278
      ESP Fit Center  143 is at   7.390345  3.463570  0.792278
      ESP Fit Center  144 is at   7.610333  3.885698  0.417951
      ESP Fit Center  145 is at   7.563597  4.300493  0.417951
      ESP Fit Center  146 is at   7.425732  4.694488  0.417951
      ESP Fit Center  147 is at   7.203652  5.047928  0.417951
      ESP Fit Center  148 is at   6.908491  5.343088  0.417951
      ESP Fit Center  149 is at   6.555052  5.565168  0.417951
      ESP Fit Center  150 is at   6.161057  5.703033  0.417951
      ESP Fit Center  151 is at   5.746262  5.749769  0.417951
      ESP Fit Center  152 is at   5.331468  5.703033  0.417951
      ESP Fit Center  153 is at   4.937472  5.565168  0.417951
      ESP Fit Center  154 is at   4.584033  5.343088  0.417951
      ESP Fit Center  155 is at   4.288873  5.047928  0.417951
      ESP Fit Center  156 is at   4.066793  4.694488  0.417951
      ESP Fit Center  157 is at   3.928928  4.300493  0.417951
      ESP Fit Center  158 is at   7.563597  3.470904  0.417951
      ESP Fit Center  159 is at   7.695525  3.885698  0.017154
      ESP Fit Center  160 is at   7.649953  4.304732  0.017154
      ESP Fit Center  161 is at   7.515365  4.704173  0.017154
      ESP Fit Center  162 is at   7.298057  5.065342  0.017154
      ESP Fit Center  163 is at   7.008188  5.371353  0.017154
      ESP Fit Center  164 is at   6.659314  5.607896  0.017154
      ESP Fit Center  165 is at   6.267745  5.763911  0.017154
      ESP Fit Center  166 is at   5.851793  5.832103  0.017154
      ESP Fit Center  167 is at   5.430907  5.809283  0.017154
      ESP Fit Center  168 is at   5.024766  5.696518  0.017154
      ESP Fit Center  169 is at   4.652361  5.499082  0.017154
      ESP Fit Center  170 is at   4.331106  5.226206  0.017154
      ESP Fit Center  171 is at   4.076022  4.890648  0.017154
      ESP Fit Center  172 is at   3.899037  4.508101  0.017154
      ESP Fit Center  173 is at   7.649953  3.466665  0.017154
      ESP Fit Center  174 is at   7.695525  3.885698 -0.392598
      ESP Fit Center  175 is at   7.649953  4.304732 -0.392598
      ESP Fit Center  176 is at   7.515365  4.704173 -0.392598
      ESP Fit Center  177 is at   7.298057  5.065342 -0.392598
      ESP Fit Center  178 is at   7.008188  5.371353 -0.392598
      ESP Fit Center  179 is at   6.659314  5.607896 -0.392598
      ESP Fit Center  180 is at   6.267745  5.763911 -0.392598
      ESP Fit Center  181 is at   5.851793  5.832103 -0.392598
      ESP Fit Center  182 is at   5.430907  5.809283 -0.392598
      ESP Fit Center  183 is at   5.024766  5.696518 -0.392598
      ESP Fit Center  184 is at   4.652361  5.499082 -0.392598
      ESP Fit Center  185 is at   4.331106  5.226206 -0.392598
      ESP Fit Center  186 is at   4.076022  4.890648 -0.392598
      ESP Fit Center  187 is at   7.649953  3.466665 -0.392598
      ESP Fit Center  188 is at   7.610333  3.885698 -0.793395
      ESP Fit Center  189 is at   7.563597  4.300493 -0.793395
      ESP Fit Center  190 is at   7.425732  4.694488 -0.793395
      ESP Fit Center  191 is at   7.203652  5.047928 -0.793395
      ESP Fit Center  192 is at   6.908491  5.343088 -0.793395
      ESP Fit Center  193 is at   6.555052  5.565168 -0.793395
      ESP Fit Center  194 is at   6.161057  5.703033 -0.793395
      ESP Fit Center  195 is at   5.746262  5.749769 -0.793395
      ESP Fit Center  196 is at   5.331468  5.703033 -0.793395
      ESP Fit Center  197 is at   4.937472  5.565168 -0.793395
      ESP Fit Center  198 is at   4.584033  5.343088 -0.793395
      ESP Fit Center  199 is at   4.288873  5.047928 -0.793395
      ESP Fit Center  200 is at   4.066793  4.694488 -0.793395
      ESP Fit Center  201 is at   7.563597  3.470904 -0.793395
      ESP Fit Center  202 is at   7.443672  3.885698 -1.167722
      ESP Fit Center  203 is at   7.390345  4.307827 -1.167722
      ESP Fit Center  204 is at   7.233714  4.703432 -1.167722
      ESP Fit Center  205 is at   6.983621  5.047655 -1.167722
      ESP Fit Center  206 is at   6.655780  5.318869 -1.167722
      ESP Fit Center  207 is at   6.270791  5.500031 -1.167722
      ESP Fit Center  208 is at   5.852844  5.579759 -1.167722
      ESP Fit Center  209 is at   5.428199  5.553042 -1.167722
      ESP Fit Center  210 is at   5.023540  5.421561 -1.167722
      ESP Fit Center  211 is at   4.664293  5.193575 -1.167722
      ESP Fit Center  212 is at   4.373029  4.883411 -1.167722
      ESP Fit Center  213 is at   7.390345  3.463570 -1.167722
      ESP Fit Center  214 is at   7.202826  3.885698 -1.499218
      ESP Fit Center  215 is at   7.143825  4.296060 -1.499218
      ESP Fit Center  216 is at   6.971602  4.673176 -1.499218
      ESP Fit Center  217 is at   6.700109  4.986496 -1.499218
      ESP Fit Center  218 is at   6.351341  5.210636 -1.499218
      ESP Fit Center  219 is at   5.953553  5.327437 -1.499218
      ESP Fit Center  220 is at   5.538972  5.327437 -1.499218
      ESP Fit Center  221 is at   5.141184  5.210636 -1.499218
      ESP Fit Center  222 is at   4.792416  4.986496 -1.499218
      ESP Fit Center  223 is at   4.520923  4.673176 -1.499218
      ESP Fit Center  224 is at   7.143825  3.475337 -1.499218
      ESP Fit Center  225 is at   6.898321  3.885698 -1.773395
      ESP Fit Center  226 is at   6.820525  4.301870 -1.773395
      ESP Fit Center  227 is at   6.597644  4.661836 -1.773395
      ESP Fit Center  228 is at   6.259779  4.916979 -1.773395
      ESP Fit Center  229 is at   5.852561  5.032843 -1.773395
      ESP Fit Center  230 is at   5.430986  4.993778 -1.773395
      ESP Fit Center  231 is at   5.051992  4.805061 -1.773395
      ESP Fit Center  232 is at   4.766762  4.492179 -1.773395
      ESP Fit Center  233 is at   6.543466  3.885698 -1.978271
      ESP Fit Center  234 is at   6.436661  4.284300 -1.978271
      ESP Fit Center  235 is at   6.144864  4.576097 -1.978271
      ESP Fit Center  236 is at   5.746262  4.682902 -1.978271
      ESP Fit Center  237 is at   5.347660  4.576097 -1.978271
      ESP Fit Center  238 is at   5.950016  4.238610 -2.104891
      ESP Fit Center  239 is at   3.728554  2.736755  0.813254
      ESP Fit Center  240 is at   3.737459  3.427154  0.686634
      ESP Fit Center  241 is at   3.445662  3.135357  0.686634
      ESP Fit Center  242 is at   3.338857  2.736755  0.686634
      ESP Fit Center  243 is at   3.445662  2.338153  0.686634
      ESP Fit Center  244 is at   3.737459  2.046357  0.686634
      ESP Fit Center  245 is at   3.441790  3.656118  0.481758
      ESP Fit Center  246 is at   3.156560  3.343236  0.481758
      ESP Fit Center  247 is at   3.003618  2.948446  0.481758
      ESP Fit Center  248 is at   3.003618  2.525065  0.481758
      ESP Fit Center  249 is at   3.156560  2.130274  0.481758
      ESP Fit Center  250 is at   3.530982  4.061692  0.207581
      ESP Fit Center  251 is at   3.182214  3.837553  0.207581
      ESP Fit Center  252 is at   2.910721  3.524233  0.207581
      ESP Fit Center  253 is at   2.738498  3.147117  0.207581
      ESP Fit Center  254 is at   2.679497  2.736755  0.207581
      ESP Fit Center  255 is at   2.738498  2.326394  0.207581
      ESP Fit Center  256 is at   2.910721  1.949277  0.207581
      ESP Fit Center  257 is at   3.817998  4.404099 -0.123915
      ESP Fit Center  258 is at   3.413339  4.272618 -0.123915
      ESP Fit Center  259 is at   3.054091  4.044632 -0.123915
      ESP Fit Center  260 is at   2.762827  3.734468 -0.123915
      ESP Fit Center  261 is at   2.557849  3.361614 -0.123915
      ESP Fit Center  262 is at   2.452035  2.949497 -0.123915
      ESP Fit Center  263 is at   2.452035  2.524013 -0.123915
      ESP Fit Center  264 is at   2.557849  2.111897 -0.123915
      ESP Fit Center  265 is at   2.762827  1.739043 -0.123915
      ESP Fit Center  266 is at   3.721266  4.554090 -0.498242
      ESP Fit Center  267 is at   3.327271  4.416225 -0.498242
      ESP Fit Center  268 is at   2.973832  4.194145 -0.498242
      ESP Fit Center  269 is at   2.678671  3.898984 -0.498242
      ESP Fit Center  270 is at   2.456591  3.545545 -0.498242
      ESP Fit Center  271 is at   2.318726  3.151550 -0.498242
      ESP Fit Center  272 is at   2.271990  2.736755 -0.498242
      ESP Fit Center  273 is at   2.318726  2.321961 -0.498242
      ESP Fit Center  274 is at   2.456591  1.927965 -0.498242
      ESP Fit Center  275 is at   2.678671  1.574526 -0.498242
      ESP Fit Center  276 is at   3.820705  4.660340 -0.899039
      ESP Fit Center  277 is at   3.414564  4.547575 -0.899039
      ESP Fit Center  278 is at   3.042160  4.350139 -0.899039
      ESP Fit Center  279 is at   2.720905  4.077262 -0.899039
      ESP Fit Center  280 is at   2.465821  3.741705 -0.899039
      ESP Fit Center  281 is at   2.288835  3.359158 -0.899039
      ESP Fit Center  282 is at   2.198224  2.947508 -0.899039
      ESP Fit Center  283 is at   2.198224  2.526003 -0.899039
      ESP Fit Center  284 is at   2.288835  2.114353 -0.899039
      ESP Fit Center  285 is at   2.465821  1.731805 -0.899039
      ESP Fit Center  286 is at   2.720905  1.396248 -0.899039
      ESP Fit Center  287 is at   4.241592  4.683159 -1.308791
      ESP Fit Center  288 is at   3.820705  4.660340 -1.308791
      ESP Fit Center  289 is at   3.414564  4.547575 -1.308791
      ESP Fit Center  290 is at   3.042160  4.350139 -1.308791
      ESP Fit Center  291 is at   2.720905  4.077262 -1.308791
      ESP Fit Center  292 is at   2.465821  3.741705 -1.308791
      ESP Fit Center  293 is at   2.288835  3.359158 -1.308791
      ESP Fit Center  294 is at   2.198224  2.947508 -1.308791
      ESP Fit Center  295 is at   2.198224  2.526003 -1.308791
      ESP Fit Center  296 is at   2.288835  2.114353 -1.308791
      ESP Fit Center  297 is at   2.465821  1.731805 -1.308791
      ESP Fit Center  298 is at   2.720905  1.396248 -1.308791
      ESP Fit Center  299 is at   4.550855  4.554090 -1.709588
      ESP Fit Center  300 is at   4.136061  4.600826 -1.709588
      ESP Fit Center  301 is at   3.721266  4.554090 -1.709588
      ESP Fit Center  302 is at   3.327271  4.416225 -1.709588
      ESP Fit Center  303 is at   2.973832  4.194145 -1.709588
      ESP Fit Center  304 is at   2.678671  3.898984 -1.709588
      ESP Fit Center  305 is at   2.456591  3.545545 -1.709588
      ESP Fit Center  306 is at   2.318726  3.151550 -1.709588
      ESP Fit Center  307 is at   2.271990  2.736755 -1.709588
      ESP Fit Center  308 is at   2.318726  2.321961 -1.709588
      ESP Fit Center  309 is at   2.456591  1.927965 -1.709588
      ESP Fit Center  310 is at   2.678671  1.574526 -1.709588
      ESP Fit Center  311 is at   2.973832  1.279366 -1.709588
      ESP Fit Center  312 is at   4.660589  4.351088 -2.083915
      ESP Fit Center  313 is at   4.242642  4.430816 -2.083915
      ESP Fit Center  314 is at   3.817998  4.404099 -2.083915
      ESP Fit Center  315 is at   3.413339  4.272618 -2.083915
      ESP Fit Center  316 is at   3.054091  4.044632 -2.083915
      ESP Fit Center  317 is at   2.762827  3.734468 -2.083915
      ESP Fit Center  318 is at   2.557849  3.361614 -2.083915
      ESP Fit Center  319 is at   2.452035  2.949497 -2.083915
      ESP Fit Center  320 is at   2.452035  2.524013 -2.083915
      ESP Fit Center  321 is at   2.557849  2.111897 -2.083915
      ESP Fit Center  322 is at   2.762827  1.739043 -2.083915
      ESP Fit Center  323 is at   3.054091  1.428879 -2.083915
      ESP Fit Center  324 is at   3.413339  1.200893 -2.083915
      ESP Fit Center  325 is at   3.817998  1.069411 -2.083915
[...]
 **** Fit      -0.051890
 **** Fit      -0.052475
 **** Fit      -0.080626
 **** Fit      -0.077626
 **** Fit      -0.074935
 **** Fit      -0.072629
 **** Fit      -0.082058
 **** Fit      -0.079550
 **** Fit      -0.077158
 **** Fit      -0.074800
 **** Fit      -0.072546
 **** Fit      -0.070611
 **** Fit      -0.079754
 **** Fit      -0.078205
 **** Fit      -0.076503
 **** Fit      -0.074584
 **** Fit      -0.072520
 **** Fit      -0.070511
 **** Fit      -0.068823
 **** Fit      -0.076973
 **** Fit      -0.076333
 **** Fit      -0.075240
 **** Fit      -0.073681
 **** Fit      -0.071775
 **** Fit      -0.069752
 **** Fit      -0.067890
 **** Fit      -0.066489
 **** Fit      -0.074076
 **** Fit      -0.074152
 **** Fit      -0.073594
 **** Fit      -0.072410
 **** Fit      -0.070736
 **** Fit      -0.068797
 **** Fit      -0.066853
 **** Fit      -0.065173
 **** Fit      -0.071368
 **** Fit      -0.071817
 **** Fit      -0.071577
 **** Fit      -0.070644
 **** Fit      -0.069151
 **** Fit      -0.067304
 **** Fit      -0.065337
 **** Fit      -0.063478
 **** Fit      -0.061955
 **** Fit      -0.068982
 **** Fit      -0.069499
 **** Fit      -0.069319
 **** Fit      -0.068425
 **** Fit      -0.066943
 **** Fit      -0.065068
 **** Fit      -0.063006
 **** Fit      -0.060938
 **** Fit      -0.066904
 **** Fit      -0.067275
 **** Fit      -0.066985
 **** Fit      -0.066003
 **** Fit      -0.064436
 **** Fit      -0.062448
 **** Fit      -0.060182
 **** Fit      -0.066093
 **** Fit      -0.065064
 **** Fit      -0.065191
 **** Fit      -0.064728
 **** Fit      -0.063638
 **** Fit      -0.061989
 **** Fit      -0.059877
 **** Fit      -0.063729
 **** Fit      -0.064516
 **** Fit      -0.063449
 **** Fit      -0.063295
 **** Fit      -0.062552
 **** Fit      -0.061181
 **** Fit      -0.059215
 **** Fit      -0.061626
 **** Fit      -0.062540
 **** Fit      -0.063151
 **** Fit      -0.062136
 **** Fit      -0.061697
 **** Fit      -0.060681
 **** Fit      -0.059045
 **** Fit      -0.061812
 **** Fit      -0.062123
 **** Fit      -0.061264
 **** Fit      -0.060509
 **** Fit      -0.059186
 **** Fit      -0.061593
 **** Fit      -0.061113
 **** Fit      -0.059644
 **** Fit      -0.057809
 **** Fit      -0.055875
 **** Fit      -0.054018
 **** Fit      -0.052362
 **** Fit      -0.059688
 **** Fit      -0.058257
 **** Fit      -0.056437
 **** Fit      -0.054471
 **** Fit      -0.052522
 **** Fit      -0.050682
 **** Fit      -0.059229
 **** Fit      -0.058415
 **** Fit      -0.056994
 **** Fit      -0.055219
 **** Fit      -0.053288
 **** Fit      -0.051337
 **** Fit      -0.049443
 **** Fit      -0.047611
 **** Fit      -0.058098
 **** Fit      -0.057065
 **** Fit      -0.055581
 **** Fit      -0.053814
 **** Fit      -0.051913
 **** Fit      -0.049990
 **** Fit      -0.048105
 **** Fit      -0.046257
 **** Fit      -0.057639
 **** Fit      -0.056738
 **** Fit      -0.055432
 **** Fit      -0.053800
 **** Fit      -0.051961
 **** Fit      -0.050036
 **** Fit      -0.048112
 **** Fit      -0.046231
 **** Fit      -0.044370
 **** Fit      -0.057402
 **** Fit      -0.056372
 **** Fit      -0.055121
 **** Fit      -0.053592
 **** Fit      -0.051832
 **** Fit      -0.049937
 **** Fit      -0.048005
 **** Fit      -0.046104
 **** Fit      -0.044259
 **** Fit      -0.042428
 **** Fit      -0.056143
 **** Fit      -0.054835
 **** Fit      -0.053386
 **** Fit      -0.051746
 **** Fit      -0.049955
 **** Fit      -0.048088
 **** Fit      -0.046227
 **** Fit      -0.044426
 **** Fit      -0.042702
 **** Fit      -0.041040
 **** Fit      -0.057474
 **** Fit      -0.054570
 **** Fit      -0.053052
 **** Fit      -0.051410
 **** Fit      -0.049624
 **** Fit      -0.047748
 **** Fit      -0.045868
 **** Fit      -0.044059
 **** Fit      -0.042372
 **** Fit      -0.040841
 **** Fit      -0.056074
 **** Fit      -0.052825
 **** Fit      -0.051213
 **** Fit      -0.049472
 **** Fit      -0.047630
 **** Fit      -0.045767
 **** Fit      -0.043980
 **** Fit      -0.042357
 **** Fit      -0.040973
 **** Fit      -0.039917
 **** Fit      -0.039286
 **** Fit      -0.054347
 **** Fit      -0.051013
 **** Fit      -0.049329
 **** Fit      -0.047489
 **** Fit      -0.045602
 **** Fit      -0.043816
 **** Fit      -0.042278
 **** Fit      -0.041120
 **** Fit      -0.040448
 **** Fit      -0.052469
 **** Fit      -0.049200
 **** Fit      -0.047384
 **** Fit      -0.045387
 **** Fit      -0.043573
 **** Fit      -0.042291
 **** Fit      -0.041802
 **** Fit      -0.050474
 **** Fit      -0.047419
 **** Fit      -0.045419
 **** Fit      -0.043795
 **** Fit      -0.043969
 **** Fit      -0.047975
 **** Fit      -0.045678
 **** Fit      -0.034838
 **** Fit      -0.035338
 **** Fit      -0.035982
 **** Fit      -0.036772
 **** Fit      -0.034381
 **** Fit      -0.034405
 **** Fit      -0.034681
 **** Fit      -0.035160
 **** Fit      -0.035824
 **** Fit      -0.036671
 **** Fit      -0.037719
 **** Fit      -0.038995
 **** Fit      -0.040536
 **** Fit      -0.042394
 **** Fit      -0.044635
 **** Fit      -0.035147
 **** Fit      -0.034612
 **** Fit      -0.034343
 **** Fit      -0.034346
 **** Fit      -0.034597
 **** Fit      -0.035068
 **** Fit      -0.035747
 **** Fit      -0.036634
 **** Fit      -0.037737
 **** Fit      -0.039077
 **** Fit      -0.040676
 **** Fit      -0.042559
 **** Fit      -0.044746
 **** Fit      -0.047216
 **** Fit      -0.049845
 **** Fit      -0.040709
 **** Fit      -0.039380
 **** Fit      -0.038372
 **** Fit      -0.037604
 **** Fit      -0.036980
 **** Fit      -0.036379
 **** Fit      -0.035742
 **** Fit      -0.035123
 **** Fit      -0.034637
 **** Fit      -0.034381
 **** Fit      -0.034394
 **** Fit      -0.034676
 **** Fit      -0.035216
 **** Fit      -0.036005
 **** Fit      -0.037044
 **** Fit      -0.038337
 **** Fit      -0.039889
 **** Fit      -0.041692
 **** Fit      -0.043707
 **** Fit      -0.045822
 **** Fit      -0.047791
 **** Fit      -0.045646
 **** Fit      -0.044380
 **** Fit      -0.042688
 **** Fit      -0.041003
 **** Fit      -0.039553
 **** Fit      -0.038373
 **** Fit      -0.037417
 **** Fit      -0.036618
 **** Fit      -0.035911
 **** Fit      -0.035289
 **** Fit      -0.034814
 **** Fit      -0.034567
 **** Fit      -0.034602
 **** Fit      -0.034937
 **** Fit      -0.035569
 **** Fit      -0.036492
 **** Fit      -0.037695
 **** Fit      -0.039156
 **** Fit      -0.040827
 **** Fit      -0.042605
 **** Fit      -0.044287
 **** Fit      -0.045562
 **** Fit      -0.046081
 **** Fit      -0.043046
 **** Fit      -0.042088
 **** Fit      -0.040717
 **** Fit      -0.039308
 **** Fit      -0.038060
 **** Fit      -0.037015
 **** Fit      -0.036158
 **** Fit      -0.035487
 **** Fit      -0.035056
 **** Fit      -0.034941
 **** Fit      -0.035194
 **** Fit      -0.035828
 **** Fit      -0.036825
 **** Fit      -0.038138
 **** Fit      -0.039669
 **** Fit      -0.041235
 **** Fit      -0.042539
 **** Fit      -0.043223
 **** Fit      -0.040889
 **** Fit      -0.040037
 **** Fit      -0.038732
 **** Fit      -0.037448
 **** Fit      -0.036414
 **** Fit      -0.035747
 **** Fit      -0.035569
 **** Fit      -0.035972
 **** Fit      -0.036943
 **** Fit      -0.038330
 **** Fit      -0.039795
 **** Fit      -0.040808
 **** Fit      -0.039096
 **** Fit      -0.038148
 **** Fit      -0.036903
 **** Fit      -0.036457
 **** Fit      -0.037215
 **** Fit      -0.038590
 **** Fit      -0.037627
 **** Fit      -0.039939
 **** Fit      -0.038835
 **** Fit      -0.038526
 **** Fit      -0.037901
 **** Fit      -0.037371
 **** Fit      -0.037282
 **** Fit      -0.036734
 **** Fit      -0.036282
 **** Fit      -0.036179
 **** Fit      -0.036021
 **** Fit      -0.035514
 **** Fit      -0.035324
 **** Fit      -0.035383
 **** Fit      -0.035426
 **** Fit      -0.034948
 **** Fit      -0.034734
 **** Fit      -0.034742
 **** Fit      -0.034928
 **** Fit      -0.034923
 **** Fit      -0.034539
 **** Fit      -0.034366
 **** Fit      -0.034388
 **** Fit      -0.034593
 **** Fit      -0.034953
 **** Fit      -0.034567
 **** Fit      -0.034328
 **** Fit      -0.034224
 **** Fit      -0.034277
 **** Fit      -0.034498
 **** Fit      -0.034890
 **** Fit      -0.035444
 **** Fit      -0.034365
 **** Fit      -0.034303
 **** Fit      -0.034342
 **** Fit      -0.034520
 **** Fit      -0.034865
 **** Fit      -0.035392
 **** Fit      -0.036115
 **** Fit      -0.034557
 **** Fit      -0.034629
 **** Fit      -0.034814
 **** Fit      -0.035160
 **** Fit      -0.035701
 **** Fit      -0.036463
 **** Fit      -0.037480
 **** Fit      -0.038802
 **** Fit      -0.035192
 **** Fit      -0.035476
 **** Fit      -0.035943
 **** Fit      -0.036636
 **** Fit      -0.037596
 **** Fit      -0.038869
 **** Fit      -0.040521
 **** Fit      -0.036345
 **** Fit      -0.036940
 **** Fit      -0.037792
 **** Fit      -0.038948
 **** Fit      -0.040463
 **** Fit      -0.042410
 **** Fit      -0.048261
 **** Fit      -0.046351
 **** Fit      -0.044686
 **** Fit      -0.043283
 **** Fit      -0.042154
 **** Fit      -0.049714
 **** Fit      -0.047728
 **** Fit      -0.045907
 **** Fit      -0.044263
 **** Fit      -0.042833
 **** Fit      -0.041644
 **** Fit      -0.040713
 **** Fit      -0.040038
 **** Fit      -0.048412
 **** Fit      -0.046827
 **** Fit      -0.045236
 **** Fit      -0.043718
 **** Fit      -0.042342
 **** Fit      -0.041156
 **** Fit      -0.040189
 **** Fit      -0.039454
 **** Fit      -0.038945
 **** Fit      -0.038643
 **** Fit      -0.046575
 **** Fit      -0.045474
 **** Fit      -0.044171
 **** Fit      -0.042835
 **** Fit      -0.041573
 **** Fit      -0.040454
 **** Fit      -0.039522
 **** Fit      -0.038797
 **** Fit      -0.038283
 **** Fit      -0.037967
 **** Fit      -0.037822
 **** Fit      -0.044573
 **** Fit      -0.043812
 **** Fit      -0.042722
 **** Fit      -0.041540
 **** Fit      -0.040402
 **** Fit      -0.039395
 **** Fit      -0.038567
 **** Fit      -0.037944
 **** Fit      -0.037526
 **** Fit      -0.037301
 **** Fit      -0.037235
 **** Fit      -0.042815
 **** Fit      -0.042201
 **** Fit      -0.041243
 **** Fit      -0.040189
 **** Fit      -0.039184
 **** Fit      -0.038319
 **** Fit      -0.037640
 **** Fit      -0.037169
 **** Fit      -0.036901
 **** Fit      -0.036812
 **** Fit      -0.036852
 **** Fit      -0.041387
 **** Fit      -0.040819
 **** Fit      -0.039971
 **** Fit      -0.039053
 **** Fit      -0.038202
 **** Fit      -0.037497
 **** Fit      -0.036980
 **** Fit      -0.036666
 **** Fit      -0.036541
 **** Fit      -0.036568
 **** Fit      -0.040399
 **** Fit      -0.040136
 **** Fit      -0.039471
 **** Fit      -0.038651
 **** Fit      -0.037852
 **** Fit      -0.037187
 **** Fit      -0.036718
 **** Fit      -0.036463
 **** Fit      -0.036407
 **** Fit      -0.036503
 **** Fit      -0.039532
 **** Fit      -0.039054
 **** Fit      -0.038360
 **** Fit      -0.037638
 **** Fit      -0.037030
 **** Fit      -0.036619
 **** Fit      -0.036430
 **** Fit      -0.036441
 **** Fit      -0.039050
 **** Fit      -0.038665
 **** Fit      -0.038061
 **** Fit      -0.037413
 **** Fit      -0.036895
 **** Fit      -0.036605
 **** Fit      -0.036553
 **** Fit      -0.036678
 **** Fit      -0.038653
 **** Fit      -0.038345
 **** Fit      -0.037787
 **** Fit      -0.037205
 **** Fit      -0.036847
 **** Fit      -0.036793
 **** Fit      -0.038049
 **** Fit      -0.037626
 **** Fit      -0.037164
 **** Fit      -0.037142
 **** Fit      -0.037521
 **** Fit      -0.036358
 **** Fit      -0.035800
 **** Fit      -0.035595
 **** Fit      -0.035733
 **** Fit      -0.036168
 **** Fit      -0.035879
 **** Fit      -0.035074
 **** Fit      -0.034565
 **** Fit      -0.034364
 **** Fit      -0.034462
 **** Fit      -0.034825
 **** Fit      -0.035388
 **** Fit      -0.035599
 **** Fit      -0.034648
 **** Fit      -0.033936
 **** Fit      -0.033481
 **** Fit      -0.033291
 **** Fit      -0.033359
 **** Fit      -0.033660
 **** Fit      -0.034151
 **** Fit      -0.034763
 **** Fit      -0.035768
 **** Fit      -0.034644
 **** Fit      -0.033726
 **** Fit      -0.033040
 **** Fit      -0.032601
 **** Fit      -0.032415
 **** Fit      -0.032474
 **** Fit      -0.032762
 **** Fit      -0.033243
 **** Fit      -0.033859
 **** Fit      -0.034515
 **** Fit      -0.036131
 **** Fit      -0.034912
 **** Fit      -0.033857
 **** Fit      -0.032997
 **** Fit      -0.032353
 **** Fit      -0.031939
 **** Fit      -0.031759
 **** Fit      -0.031811
 **** Fit      -0.032079
 **** Fit      -0.032539
 **** Fit      -0.033150
 **** Fit      -0.033847
 **** Fit      -0.036162
 **** Fit      -0.034934
 **** Fit      -0.033841
 **** Fit      -0.032919
 **** Fit      -0.032194
 **** Fit      -0.031684
 **** Fit      -0.031398
 **** Fit      -0.031336
 **** Fit      -0.031493
 **** Fit      -0.031854
 **** Fit      -0.032396
 **** Fit      -0.033084
 **** Fit      -0.033870
 **** Fit      -0.035444
 **** Fit      -0.034262
 **** Fit      -0.033227
 **** Fit      -0.032378
 **** Fit      -0.031741
 **** Fit      -0.031332
 **** Fit      -0.031157
 **** Fit      -0.031216
 **** Fit      -0.031500
 **** Fit      -0.031994
 **** Fit      -0.032676
 **** Fit      -0.033522
 **** Fit      -0.035667
 **** Fit      -0.034460
 **** Fit      -0.033383
 **** Fit      -0.032491
 **** Fit      -0.031820
 **** Fit      -0.031391
 **** Fit      -0.031213
 **** Fit      -0.031288
 **** Fit      -0.031608
 **** Fit      -0.032161
 **** Fit      -0.032933
 **** Fit      -0.033921
 **** Fit      -0.034796
 **** Fit      -0.033713
 **** Fit      -0.032804
 **** Fit      -0.032115
 **** Fit      -0.031675
 **** Fit      -0.031497
 **** Fit      -0.031584
 **** Fit      -0.031930
 **** Fit      -0.032526
 **** Fit      -0.033364
 **** Fit      -0.035588
 **** Fit      -0.034438
 **** Fit      -0.033438
 **** Fit      -0.032668
 **** Fit      -0.032177
 **** Fit      -0.031989
 **** Fit      -0.032108
 **** Fit      -0.032529
 **** Fit      -0.033235
 **** Fit      -0.034216
 **** Fit      -0.035298
 **** Fit      -0.034240
 **** Fit      -0.033400
 **** Fit      -0.032860
 **** Fit      -0.032660
 **** Fit      -0.032810
 **** Fit      -0.033293
 **** Fit      -0.034066
 **** Fit      -0.034765
 **** Fit      -0.033959
 **** Fit      -0.033527
 **** Fit      -0.033517
 **** Fit      -0.033904
 **** Fit      -0.034979
 **** Fit      -0.034418
 **** Fit      -0.034437
 **** Fit      -0.041016
 **** Fit      -0.042415
 **** Fit      -0.041868
 **** Fit      -0.040546
 **** Fit      -0.039905
 **** Fit      -0.040365
 **** Fit      -0.041502
 **** Fit      -0.044180
 **** Fit      -0.044026
 **** Fit      -0.042877
 **** Fit      -0.041418
 **** Fit      -0.040159
 **** Fit      -0.039348
 **** Fit      -0.039055
 **** Fit      -0.039266
 **** Fit      -0.039916
 **** Fit      -0.040853
 **** Fit      -0.041900
 **** Fit      -0.043164
 **** Fit      -0.046498
 **** Fit      -0.046480
 **** Fit      -0.045457
 **** Fit      -0.043972
 **** Fit      -0.042417
 **** Fit      -0.041019
 **** Fit      -0.039897
 **** Fit      -0.039096
 **** Fit      -0.038620
 **** Fit      -0.038453
 **** Fit      -0.038574
 **** Fit      -0.038966
 **** Fit      -0.039616
 **** Fit      -0.040465
 **** Fit      -0.049456
 **** Fit      -0.048219
 **** Fit      -0.046550
 **** Fit      -0.044790
 **** Fit      -0.043127
 **** Fit      -0.041660
 **** Fit      -0.040441
 **** Fit      -0.039486
 **** Fit      -0.038792
 **** Fit      -0.038342
 **** Fit      -0.038116
 **** Fit      -0.038095
 **** Fit      -0.038262
 **** Fit      -0.038610
 **** Fit      -0.039148
 **** Fit      -0.039893
 **** Fit      -0.040803
 **** Fit      -0.053041
 **** Fit      -0.051223
 **** Fit      -0.049155
 **** Fit      -0.047106
 **** Fit      -0.045197
 **** Fit      -0.043489
 **** Fit      -0.042013
 **** Fit      -0.040782
 **** Fit      -0.039792
 **** Fit      -0.039033
 **** Fit      -0.038484
 **** Fit      -0.038125
 **** Fit      -0.037938
 **** Fit      -0.037906
 **** Fit      -0.038013
 **** Fit      -0.038242
 **** Fit      -0.038594
 **** Fit      -0.039096
 **** Fit      -0.039802
 **** Fit      -0.040741
 **** Fit      -0.057213
 **** Fit      -0.054494
 **** Fit      -0.051889
 **** Fit      -0.049513
 **** Fit      -0.047378
 **** Fit      -0.045482
 **** Fit      -0.043823
 **** Fit      -0.042398
 **** Fit      -0.041200
 **** Fit      -0.040218
 **** Fit      -0.039435
 **** Fit      -0.038831
 **** Fit      -0.038385
 **** Fit      -0.038078
 **** Fit      -0.057396
 **** Fit      -0.054016
 **** Fit      -0.051211
 **** Fit      -0.048822
 **** Fit      -0.046756
 **** Fit      -0.044969
 **** Fit      -0.043436
 **** Fit      -0.042141
 **** Fit      -0.041063
 -----------------------------------------------------------------
 Leave Link  602 at Thu Feb 15 13:11:30 2018, MaxMem=    33554432 cpu:         2.6

 Test job not archived.
 1\1\GINC-QUAD25\FOpt\RHF\6-31G(d)\C20H29O2(1-)\ACEBRIAN\15-Feb-2018\0\
 \#HF/6-31G* SCF=tight Test Pop=MK iop(6/33=2) iop(6/42=6) opt # iop(6/
 50=1)\\COX2-EPA charge resp\\-1,1\C,10.80816343,23.555455294,25.731637
 9163\O,10.5607597377,23.9370265618,24.5817620283\O,10.1477579794,23.69
 62566384,26.7616560896\C,12.1341005642,22.7588566127,25.9232225029\C,1
 3.0680557138,22.7324696232,24.7148282652\C,13.6871680292,24.1046196247
 ,24.4107397169\C,14.4987627222,24.0978531409,23.1435622393\C,15.795500
 3837,24.2985217373,22.9693721399\C,16.8364449496,24.601505108,24.02344
 71709\C,17.5113215074,25.9295924,23.7740170872\C,17.6477555142,26.9591
 058274,24.5925251774\C,17.1574802446,27.0966892674,26.0158049891\C,16.
 1135295428,28.1822445707,26.1342390723\C,16.2113374973,29.3555189169,2
 6.7355363517\C,17.3969489084,29.9352447725,27.4723207337\C,17.05325363
 82,30.2642390033,28.9060025712\C,17.6526207334,29.8619192812,30.013560
 9195\C,18.8468223105,28.9471519073,30.1572715998\C,18.4788979922,27.68
 40683249,30.9004669252\C,18.956489812,27.2353480125,32.0493494259\C,19
 .999446095,27.8536792928,32.9441358158\C,19.4487170594,28.1687818657,3
 4.3396578157\H,12.6459593486,23.1569685822,26.7980846679\H,11.85383198
 85,21.7395825153,26.1876495238\H,12.5010781513,22.4074638544,23.849292
 8728\H,13.8717449236,22.0093411662,24.868520963\H,14.2842594072,24.431
 1300166,25.2577210769\H,12.8689876096,24.8056899175,24.2977210072\H,13
 .919002565,23.885646792,22.2572485883\H,16.1836922441,24.2471107255,21
 .9619036458\H,16.4039079659,24.5606145215,25.0115200708\H,17.601792538
 7,23.8242453537,23.989058947\H,17.9263623557,26.0362512009,22.78246251
 23\H,18.1542532492,27.8345756323,24.2147562423\H,18.0040874512,27.3039
 26779,26.6629060961\H,16.7255828906,26.1657844237,26.3635625403\H,15.1
 805047202,27.9488537302,25.6472178883\H,15.3443660366,29.9980055473,26
 .7104648121\H,18.2515955224,29.2776510401,27.4148101428\H,17.687980728
 ,30.8609111256,26.9741864104\H,16.1970161718,30.911787759,29.018860331
 5\H,17.2438343035,30.2026592475,30.9523543064\H,19.6393870073,29.47964
 93795,30.6724763773\H,19.2409216781,28.6764783317,29.1838160271\H,17.7
 176998789,27.0953566508,30.413472261\H,18.5520427457,26.3044532726,32.
 4182923284\H,20.8311197345,27.1581655226,33.0444855503\H,20.4075363896
 ,28.7564228878,32.5055623262\H,19.0551432233,27.275491397,34.815918860
 4\H,20.2245827462,28.5737102991,34.9830165079\H,18.6433920597,28.89412
 4545,34.2830405617\\Version=ES64L-G09RevD.01\State=1-A\HF=-923.9007831
 \RMSD=6.886e-09\RMSF=2.552e-06\Dipole=9.5515895,4.4319181,2.9030256\Qu
 adrupole=-58.2034896,26.2200552,31.9834344,-46.7518079,-24.8906502,-13
 .3712793\PG=C01 [X(C20H29O2)]\\@


 REFRAIN FROM ILLUSIONS, INSIST ON WORK AND NOT WORDS,
 PATIENTLY SEEK DIVINE AND SCIENTIFIC TRUTH.
 LAST WORDS OF MARIA MENDELEEVA TO HER SON DMITRI, C. 1850
 Job cpu time:       0 days  1 hours 16 minutes 18.8 seconds.
 File lengths (MBytes):  RWF=     95 Int=      0 D2E=      0 Chk=     12 Scr=      1
 Normal termination of Gaussian 09 at Thu Feb 15 13:11:31 2018.
