Thu May 11 16:51:23 CEST 2017
borg-test.uab.es
borg-test.uab.es
borg-test.uab.es
borg-test.uab.es
borg-test.uab.es
borg-test.uab.es
borg-test.uab.es
borg-test.uab.es
 Entering Gaussian System, Link 0=g09
 Initial command:
 /QFsoft/applic/GAUSSIAN/g09d.01_pgi11.9-ISTANBUL/g09/l1.exe "/scratch/SAS.com.acebrian/Gau-46725.inp" -scrdir="/scratch/SAS.com.acebrian/"
 Entering Link 1 = /QFsoft/applic/GAUSSIAN/g09d.01_pgi11.9-ISTANBUL/g09/l1.exe PID=     46726.
  
 Copyright (c) 1988,1990,1992,1993,1995,1998,2003,2009,2013,
            Gaussian, Inc.  All Rights Reserved.
  
 This is part of the Gaussian(R) 09 program.  It is based on
 the Gaussian(R) 03 system (copyright 2003, Gaussian, Inc.),
 the Gaussian(R) 98 system (copyright 1998, Gaussian, Inc.),
 the Gaussian(R) 94 system (copyright 1995, Gaussian, Inc.),
 the Gaussian 92(TM) system (copyright 1992, Gaussian, Inc.),
 the Gaussian 90(TM) system (copyright 1990, Gaussian, Inc.),
 the Gaussian 88(TM) system (copyright 1988, Gaussian, Inc.),
 the Gaussian 86(TM) system (copyright 1986, Carnegie Mellon
 University), and the Gaussian 82(TM) system (copyright 1983,
 Carnegie Mellon University). Gaussian is a federally registered
 trademark of Gaussian, Inc.
  
 This software contains proprietary and confidential information,
 including trade secrets, belonging to Gaussian, Inc.
  
 This software is provided under written license and may be
 used, copied, transmitted, or stored only in accord with that
 written license.
  
 The following legend is applicable only to US Government
 contracts under FAR:
  
                    RESTRICTED RIGHTS LEGEND
  
 Use, reproduction and disclosure by the US Government is
 subject to restrictions as set forth in subparagraphs (a)
 and (c) of the Commercial Computer Software - Restricted
 Rights clause in FAR 52.227-19.
  
 Gaussian, Inc.
 340 Quinnipiac St., Bldg. 40, Wallingford CT 06492
  
  
 ---------------------------------------------------------------
 Warning -- This program may not be used in any manner that
 competes with the business of Gaussian, Inc. or will provide
 assistance to any competitor of Gaussian, Inc.  The licensee
 of this program is prohibited from giving any competitor of
 Gaussian, Inc. access to this program.  By using this program,
 the user acknowledges that Gaussian, Inc. is engaged in the
 business of creating and licensing software in the field of
 computational chemistry and represents and warrants to the
 licensee that it is not a competitor of Gaussian, Inc. and that
 it will not use this program in any manner prohibited above.
 ---------------------------------------------------------------
  

 Cite this work as:
 Gaussian 09, Revision D.01,
 M. J. Frisch, G. W. Trucks, H. B. Schlegel, G. E. Scuseria, 
 M. A. Robb, J. R. Cheeseman, G. Scalmani, V. Barone, B. Mennucci, 
 G. A. Petersson, H. Nakatsuji, M. Caricato, X. Li, H. P. Hratchian, 
 A. F. Izmaylov, J. Bloino, G. Zheng, J. L. Sonnenberg, M. Hada, 
 M. Ehara, K. Toyota, R. Fukuda, J. Hasegawa, M. Ishida, T. Nakajima, 
 Y. Honda, O. Kitao, H. Nakai, T. Vreven, J. A. Montgomery, Jr., 
 J. E. Peralta, F. Ogliaro, M. Bearpark, J. J. Heyd, E. Brothers, 
 K. N. Kudin, V. N. Staroverov, T. Keith, R. Kobayashi, J. Normand, 
 K. Raghavachari, A. Rendell, J. C. Burant, S. S. Iyengar, J. Tomasi, 
 M. Cossi, N. Rega, J. M. Millam, M. Klene, J. E. Knox, J. B. Cross, 
 V. Bakken, C. Adamo, J. Jaramillo, R. Gomperts, R. E. Stratmann, 
 O. Yazyev, A. J. Austin, R. Cammi, C. Pomelli, J. W. Ochterski, 
 R. L. Martin, K. Morokuma, V. G. Zakrzewski, G. A. Voth, 
 P. Salvador, J. J. Dannenberg, S. Dapprich, A. D. Daniels, 
 O. Farkas, J. B. Foresman, J. V. Ortiz, J. Cioslowski, 
 and D. J. Fox, Gaussian, Inc., Wallingford CT, 2013.
 
 ******************************************
 Gaussian 09:  AS64L-G09RevD.01 24-Apr-2013
                11-May-2017 
 ******************************************
 %chk=SAS.chk
 ------------------------------------------------
 # hf/6-31g* geom=connectivity iop(6/50=1) pop=mk
 ------------------------------------------------
 1/38=1,57=2/1;
 2/12=2,17=6,18=5,40=1/2;
 3/5=1,6=6,7=1,11=9,16=1,25=1,30=1/1,2,3;
 4//1;
 5/5=2,38=5/2;
 6/7=2,8=2,9=2,10=2,15=8,20=1,28=1,50=1/1,2;
 99/5=1,9=1/99;
 ---------------
 SAS with out OH
 ---------------
 Symbolic Z-matrix:
 Charge =  0 Multiplicity = 1
 N                     47.601    51.813    51.35 
 C                     46.675    52.945    51.463 
 H                     47.254    53.831    51.681 
 C                     45.97     53.157    50.12 
 H                     46.716    53.461    49.389 
 H                     45.514    52.228    49.786 
 O                     44.959    54.137    50.203 
 C                     44.82     54.749    48.943 
 C                     45.675    52.784    52.605 
 O                     45.6944   53.5844   53.57585 
 O                     44.81     56.04     48.848 
 C                     44.682    53.891    47.69 
 H                     44.586    54.536    46.817 
 H                     43.796    53.262    47.777 
 H                     45.566    53.262    47.582 
 H                     47.70367   51.37585   52.24351 
 C                     47.66604   50.55347   50.59484 
 O                     48.59737   49.73445   50.80791 
 C                     46.47227   50.51204   49.62283 
 H                     45.57567   50.76731   50.14803 
 H                     46.63315   51.21268   48.83029 
 H                     46.37856   49.52733   49.21482 
 N                     44.68933   51.69397   52.57066 
 H                     43.77526   52.0659   52.73237 
 C                     45.00993   50.71035   53.61498 
 H                     44.33823   50.83305   54.4388 
 H                     44.90958   49.72217   53.21709 
 H                     46.01533   50.85988   53.94921 
 
                          Input orientation:                          
 ---------------------------------------------------------------------
 Center     Atomic      Atomic             Coordinates (Angstroms)
 Number     Number       Type             X           Y           Z
 ---------------------------------------------------------------------
      1          7           0       47.601000   51.813000   51.350000
      2          6           0       46.675000   52.945000   51.463000
      3          1           0       47.254000   53.831000   51.681000
      4          6           0       45.970000   53.157000   50.120000
      5          1           0       46.716000   53.461000   49.389000
      6          1           0       45.514000   52.228000   49.786000
      7          8           0       44.959000   54.137000   50.203000
      8          6           0       44.820000   54.749000   48.943000
      9          6           0       45.675000   52.784000   52.605000
     10          8           0       45.694401   53.584399   53.575853
     11          8           0       44.810000   56.040000   48.848000
     12          6           0       44.682000   53.891000   47.690000
     13          1           0       44.586000   54.536000   46.817000
     14          1           0       43.796000   53.262000   47.777000
     15          1           0       45.566000   53.262000   47.582000
     16          1           0       47.703665   51.375852   52.243511
     17          6           0       47.666042   50.553474   50.594842
     18          8           0       48.597369   49.734448   50.807906
     19          6           0       46.472273   50.512038   49.622834
     20          1           0       45.575667   50.767311   50.148033
     21          1           0       46.633155   51.212678   48.830295
     22          1           0       46.378560   49.527333   49.214820
     23          7           0       44.689326   51.693969   52.570657
     24          1           0       43.775261   52.065901   52.732375
     25          6           0       45.009926   50.710353   53.614982
     26          1           0       44.338230   50.833049   54.438797
     27          1           0       44.909582   49.722166   53.217091
     28          1           0       46.015327   50.859880   53.949213
 ---------------------------------------------------------------------
                    Distance matrix (angstroms):
                    1          2          3          4          5
     1  N    0.000000
     2  C    1.466857   0.000000
     3  H    2.074197   1.080630   0.000000
     4  C    2.445281   1.531541   2.130646   0.000000
     5  H    2.710101   2.137619   2.383193   1.087793   0.000000
     6  H    2.640812   2.162022   3.031210   1.087443   1.767117
     7  O    3.700912   2.439902   2.746843   1.410464   2.051005
     8  C    4.706135   3.611903   3.776735   2.289605   2.335097
     9  C    2.495464   1.526462   2.107896   2.530095   3.447414
    10  O    3.424529   2.415482   2.466502   3.493071   4.311454
    11  O    5.649532   4.460434   4.344963   3.357867   3.252193
    12  C    5.121938   4.370640   4.748354   2.846507   2.684894
    13  H    6.087121   5.336714   5.592293   3.837565   3.508234
    14  H    5.417006   4.687827   5.246212   3.197960   3.341339
    15  H    4.520913   4.048769   4.469329   2.572097   2.151128
    16  H    1.000000   2.032135   2.558587   3.269156   3.670362
    17  C    1.470000   2.730432   3.477311   3.143307   3.287908
    18  O    2.367909   3.798986   4.398712   4.369227   4.409085
    19  C    2.439186   3.057223   3.982795   2.737750   2.968242
    20  H    2.576852   2.771282   3.814837   2.422168   3.021995
    21  H    2.765145   3.151797   3.920150   2.425593   2.318181
    22  H    3.358218   4.101540   5.036863   3.763077   3.951954
    23  N    3.159433   2.595165   3.454843   3.128307   4.165663
    24  H    4.075684   3.285211   4.040122   3.582161   4.666091
    25  C    3.613812   3.520958   4.302859   4.372954   5.323126
    26  H    4.598548   4.333151   5.009478   5.168697   6.169308
    27  H    3.886045   4.071879   4.973770   4.744950   5.647682
    28  H    3.190408   3.311216   3.937849   4.465612   5.296443
                    6          7          8          9         10
     6  H    0.000000
     7  O    2.031304   0.000000
     8  C    2.747313   1.407645   0.000000
     9  C    2.877815   2.848310   4.242935   0.000000
    10  O    4.029311   3.496044   4.856357   1.258400   0.000000
    11  O    3.988333   2.340862   1.294529   5.046267   5.400439
    12  C    2.801965   2.540160   1.524866   5.135048   5.980153
    13  H    3.873372   3.429771   2.149419   6.144621   6.914925
    14  H    2.838443   2.829076   2.149256   5.202760   6.110202
    15  H    2.435052   2.829084   2.149420   5.046870   6.003891
    16  H    3.400022   4.395544   5.530553   2.495804   3.269550
    17  C    2.844213   4.508134   5.332070   3.602808   4.686182
    18  O    4.095028   5.743353   6.549208   4.590158   5.559755
    19  C    1.972165   3.970760   4.598264   3.832854   5.066641
    20  H    1.506149   3.426092   4.228118   3.180187   4.438472
    21  H    1.787948   3.638512   3.975651   4.199466   5.387638
    22  H    2.892630   4.923482   5.456079   4.753335   5.995537
    23  N    2.952895   3.412759   4.744490   1.470000   2.365231
    24  H    3.424998   3.476841   4.759187   2.034920   2.588511
    25  C    4.149512   4.835920   6.178524   2.400500   2.954687
    26  H    4.997684   5.407719   6.765394   2.992654   3.186503
    27  H    4.291493   5.345835   6.598859   3.214864   3.957460
    28  H    4.410830   5.088168   6.451064   2.371702   2.768645
                   11         12         13         14         15
    11  O    0.000000
    12  C    2.444494   0.000000
    13  H    2.537155   1.089665   0.000000
    14  H    3.145238   1.090049   1.780106   0.000000
    15  H    3.145088   1.090303   1.780085   1.780709   0.000000
    16  H    6.454228   6.015886   7.010948   6.227128   5.464142
    17  C    6.427316   5.336824   6.294383   5.500324   4.563278
    18  O    7.612186   6.506026   7.421140   6.684546   5.660326
    19  C    5.824250   4.284660   5.255759   4.258149   3.542404
    20  H    5.484303   4.074064   5.126230   3.874595   3.578839
    21  H    5.160159   3.504381   4.391886   3.654941   2.626172
    22  H    6.708932   4.923919   5.835199   4.762843   4.156211
    23  N    5.723698   5.352365   6.418129   5.122099   5.302261
    24  H    5.652656   5.438631   6.461451   5.097727   5.582451
    25  C    7.153267   6.732716   7.812032   6.485873   6.573963
    26  H    7.654536   7.417243   8.477324   7.111494   7.377187
    27  H    7.682051   6.926739   8.014916   6.585217   6.686970
    28  H    7.369453   7.081186   8.150172   6.985113   6.820079
                   16         17         18         19         20
    16  H    0.000000
    17  C    1.842778   0.000000
    18  O    2.356666   1.258400   0.000000
    19  C    3.021663   1.540000   2.554423   0.000000
    20  H    3.047906   2.148263   3.260816   1.070000   0.000000
    21  H    3.580875   2.148263   3.155036   1.070000   1.747303
    22  H    3.787597   2.148263   2.739331   1.070000   1.747303
    23  N    3.048682   3.750388   4.713790   3.642186   2.741059
    24  H    4.018397   4.689846   5.691395   4.399728   3.406849
    25  C    3.095166   4.025023   4.658521   4.256176   3.513267
    26  H    4.054636   5.092002   5.703557   5.277374   4.466120
    27  H    3.389607   3.894269   4.405008   3.998072   3.309852
    28  H    2.454818   3.751073   4.219165   4.364327   3.827642
                   21         22         23         24         25
    21  H    0.000000
    22  H    1.747303   0.000000
    23  N    4.242691   4.336988   0.000000
    24  H    4.911392   5.059118   1.000000   0.000000
    25  C    5.077444   4.757533   1.470000   2.034920   0.000000
    26  H    6.071746   5.758278   2.086720   2.179159   1.070000
    27  H    4.943310   4.267790   2.086720   2.648533   1.070000
    28  H    5.168124   4.931744   2.086720   2.820120   1.070000
                   26         27         28
    26  H    0.000000
    27  H    1.747303   0.000000
    28  H    1.747303   1.747303   0.000000
 Stoichiometry    C8H14N2O4
 Framework group  C1[X(C8H14N2O4)]
 Deg. of freedom    78
 Full point group                 C1      NOp   1
 Largest Abelian subgroup         C1      NOp   1
 Largest concise Abelian subgroup C1      NOp   1
                         Standard orientation:                         
 ---------------------------------------------------------------------
 Center     Atomic      Atomic             Coordinates (Angstroms)
 Number     Number       Type             X           Y           Z
 ---------------------------------------------------------------------
      1          7           0       -1.396415    0.738895   -1.067727
      2          6           0       -0.349437   -0.282596   -0.957904
      3          1           0       -0.039752   -0.553701   -1.957082
      4          6           0        0.860662    0.310469   -0.230202
      5          1           0        1.281734    1.095118   -0.854957
      6          1           0        0.550907    0.747795    0.716018
      7          8           0        1.845235   -0.663259    0.037904
      8          6           0        3.104137   -0.034303    0.070210
      9          6           0       -0.836940   -1.564678   -0.288058
     10          8           0       -0.866797   -2.641937   -0.937820
     11          8           0        4.090700   -0.525371   -0.609019
     12          6           0        3.305312    1.225951    0.904780
     13          1           0        4.335752    1.566248    0.805983
     14          1           0        3.093514    1.005610    1.951106
     15          1           0        2.629460    2.005749    0.552785
     16          1           0       -2.292760    0.296216   -1.092235
     17          6           0       -1.855934    1.891013   -0.278824
     18          8           0       -2.880914    2.531022   -0.630073
     19          6           0       -0.894223    2.075773    0.909693
     20          1           0       -0.738429    1.133556    1.392245
     21          1           0        0.041866    2.454220    0.555552
     22          1           0       -1.317903    2.767915    1.607070
     23          7           0       -1.271534   -1.540936    1.116030
     24          1           0       -0.802950   -2.264904    1.622289
     25          6           0       -2.723979   -1.757275    1.183129
     26          1           0       -2.920943   -2.761600    1.495277
     27          1           0       -3.154190   -1.074534    1.885754
     28          1           0       -3.154024   -1.593163    0.217195
 ---------------------------------------------------------------------
 Rotational constants (GHZ):      0.8134599      0.4462392      0.3401758
 Standard basis: 6-31G(d) (6D, 7F)
 There are   238 symmetry adapted cartesian basis functions of A   symmetry.
 There are   238 symmetry adapted basis functions of A   symmetry.
   238 basis functions,   448 primitive gaussians,   238 cartesian basis functions
    54 alpha electrons       54 beta electrons
       nuclear repulsion energy       944.3562787185 Hartrees.
 NAtoms=   28 NActive=   28 NUniq=   28 SFac= 1.00D+00 NAtFMM=   60 NAOKFM=F Big=F
 Integral buffers will be    131072 words long.
 Raffenetti 1 integral format.
 Two-electron integral symmetry is turned on.
 One-electron integrals computed using PRISM.
 NBasis=   238 RedAO= T EigKep=  2.15D-03  NBF=   238
 NBsUse=   238 1.00D-06 EigRej= -1.00D+00 NBFU=   238
 ExpMin= 1.61D-01 ExpMax= 5.48D+03 ExpMxC= 8.25D+02 IAcc=1 IRadAn=         1 AccDes= 0.00D+00
 Harris functional with IExCor=  205 and IRadAn=       1 diagonalized for initial guess.
 HarFok:  IExCor=  205 AccDes= 0.00D+00 IRadAn=         1 IDoV= 1 UseB2=F ITyADJ=14
 ICtDFT=  3500011 ScaDFX=  1.000000  1.000000  1.000000  1.000000
 FoFCou: FMM=F IPFlag=           0 FMFlag=      100000 FMFlg1=           0
         NFxFlg=           0 DoJE=T BraDBF=F KetDBF=T FulRan=T
         wScrn=  0.000000 ICntrl=     500 IOpCl=  0 I1Cent=   200000004 NGrid=           0
         NMat0=    1 NMatS0=      1 NMatT0=    0 NMatD0=    1 NMtDS0=    0 NMtDT0=    0
 Petite list used in FoFCou.
 Requested convergence on RMS density matrix=1.00D-08 within 128 cycles.
 Requested convergence on MAX density matrix=1.00D-06.
 Requested convergence on             energy=1.00D-06.
 No special actions if energy rises.
 Integral accuracy reduced to 1.0D-05 until final iterations.
 Initial convergence to 1.0D-05 achieved.  Increase integral accuracy.
 SCF Done:  E(RHF) =  -719.318504195     A.U. after   17 cycles
            NFock= 17  Conv=0.62D-08     -V/T= 2.0031

 **********************************************************************

            Population analysis using the SCF density.

 **********************************************************************

 Orbital symmetries:
       Occupied  (A) (A) (A) (A) (A) (A) (A) (A) (A) (A) (A) (A)
                 (A) (A) (A) (A) (A) (A) (A) (A) (A) (A) (A) (A)
                 (A) (A) (A) (A) (A) (A) (A) (A) (A) (A) (A) (A)
                 (A) (A) (A) (A) (A) (A) (A) (A) (A) (A) (A) (A)
                 (A) (A) (A) (A) (A) (A)
       Virtual   (A) (A) (A) (A) (A) (A) (A) (A) (A) (A) (A) (A)
                 (A) (A) (A) (A) (A) (A) (A) (A) (A) (A) (A) (A)
                 (A) (A) (A) (A) (A) (A) (A) (A) (A) (A) (A) (A)
                 (A) (A) (A) (A) (A) (A) (A) (A) (A) (A) (A) (A)
                 (A) (A) (A) (A) (A) (A) (A) (A) (A) (A) (A) (A)
                 (A) (A) (A) (A) (A) (A) (A) (A) (A) (A) (A) (A)
                 (A) (A) (A) (A) (A) (A) (A) (A) (A) (A) (A) (A)
                 (A) (A) (A) (A) (A) (A) (A) (A) (A) (A) (A) (A)
                 (A) (A) (A) (A) (A) (A) (A) (A) (A) (A) (A) (A)
                 (A) (A) (A) (A) (A) (A) (A) (A) (A) (A) (A) (A)
                 (A) (A) (A) (A) (A) (A) (A) (A) (A) (A) (A) (A)
                 (A) (A) (A) (A) (A) (A) (A) (A) (A) (A) (A) (A)
                 (A) (A) (A) (A) (A) (A) (A) (A) (A) (A) (A) (A)
                 (A) (A) (A) (A) (A) (A) (A) (A) (A) (A) (A) (A)
                 (A) (A) (A) (A) (A) (A) (A) (A) (A) (A) (A) (A)
                 (A) (A) (A) (A)
 The electronic state is 1-A.
 Alpha  occ. eigenvalues --  -20.63095 -20.58634 -20.57636 -20.57408 -15.60347
 Alpha  occ. eigenvalues --  -15.59127 -11.42044 -11.40497 -11.39033 -11.32140
 Alpha  occ. eigenvalues --  -11.31816 -11.27384 -11.27236 -11.25815  -1.45533
 Alpha  occ. eigenvalues --   -1.39513  -1.38505  -1.33761  -1.25083  -1.22397
 Alpha  occ. eigenvalues --   -1.06518  -1.04680  -1.03858  -0.95747  -0.92078
 Alpha  occ. eigenvalues --   -0.82758  -0.80009  -0.78635  -0.72921  -0.71997
 Alpha  occ. eigenvalues --   -0.69696  -0.68458  -0.68021  -0.65516  -0.65475
 Alpha  occ. eigenvalues --   -0.63661  -0.63547  -0.62312  -0.61523  -0.59803
 Alpha  occ. eigenvalues --   -0.59497  -0.59225  -0.57495  -0.56888  -0.55751
 Alpha  occ. eigenvalues --   -0.52579  -0.50573  -0.49341  -0.47485  -0.46027
 Alpha  occ. eigenvalues --   -0.45445  -0.44572  -0.42051  -0.41022
 Alpha virt. eigenvalues --    0.10479   0.12706   0.14579   0.18062   0.20335
 Alpha virt. eigenvalues --    0.22100   0.23689   0.25231   0.26256   0.27605
 Alpha virt. eigenvalues --    0.28116   0.28481   0.30559   0.31185   0.31509
 Alpha virt. eigenvalues --    0.33364   0.34178   0.34967   0.36484   0.37044
 Alpha virt. eigenvalues --    0.37447   0.39813   0.42535   0.43725   0.46217
 Alpha virt. eigenvalues --    0.47451   0.50703   0.51752   0.54212   0.55039
 Alpha virt. eigenvalues --    0.68619   0.70399   0.71896   0.73320   0.73799
 Alpha virt. eigenvalues --    0.75877   0.76564   0.77327   0.79289   0.80046
 Alpha virt. eigenvalues --    0.81017   0.81178   0.82199   0.83188   0.85812
 Alpha virt. eigenvalues --    0.86709   0.86904   0.88135   0.91398   0.92195
 Alpha virt. eigenvalues --    0.93265   0.96247   0.96767   0.99341   1.02861
 Alpha virt. eigenvalues --    1.03603   1.04244   1.07647   1.08364   1.10167
 Alpha virt. eigenvalues --    1.10996   1.11351   1.12608   1.13237   1.14272
 Alpha virt. eigenvalues --    1.14708   1.15333   1.15407   1.16280   1.17157
 Alpha virt. eigenvalues --    1.18456   1.21052   1.21546   1.23073   1.25139
 Alpha virt. eigenvalues --    1.25361   1.27187   1.28069   1.28487   1.31289
 Alpha virt. eigenvalues --    1.33179   1.34088   1.35153   1.36423   1.37520
 Alpha virt. eigenvalues --    1.38241   1.41061   1.42590   1.43847   1.49939
 Alpha virt. eigenvalues --    1.51669   1.55908   1.59722   1.61927   1.62669
 Alpha virt. eigenvalues --    1.65285   1.66441   1.70953   1.73935   1.75950
 Alpha virt. eigenvalues --    1.79518   1.79928   1.81902   1.86686   1.87530
 Alpha virt. eigenvalues --    1.93757   1.96482   1.97156   1.99667   2.02223
 Alpha virt. eigenvalues --    2.04476   2.04956   2.05555   2.06471   2.07185
 Alpha virt. eigenvalues --    2.09639   2.10412   2.12079   2.12773   2.14361
 Alpha virt. eigenvalues --    2.16596   2.17903   2.20374   2.21194   2.21834
 Alpha virt. eigenvalues --    2.25532   2.26761   2.29287   2.31460   2.32493
 Alpha virt. eigenvalues --    2.36466   2.39049   2.41039   2.44846   2.47039
 Alpha virt. eigenvalues --    2.47544   2.49304   2.51872   2.55461   2.57104
 Alpha virt. eigenvalues --    2.59842   2.63437   2.64132   2.65846   2.66722
 Alpha virt. eigenvalues --    2.67963   2.69191   2.71074   2.74532   2.77530
 Alpha virt. eigenvalues --    2.79380   2.84454   2.86409   2.89057   2.89333
 Alpha virt. eigenvalues --    2.90287   2.92198   2.93188   3.02408   3.04270
 Alpha virt. eigenvalues --    3.09395   3.14664   3.19154   3.24351   3.29758
 Alpha virt. eigenvalues --    3.29847   3.31752   3.33264   3.36096   3.43148
 Alpha virt. eigenvalues --    4.21776   4.25483   4.32656   4.38955   4.49400
 Alpha virt. eigenvalues --    4.52884   4.58453   4.63734   4.65600   4.71531
 Alpha virt. eigenvalues --    4.82732   4.86444   4.95022   5.04487
          Condensed to atoms (all electrons):
               1          2          3          4          5          6
     1  N    7.412983   0.174380  -0.038511  -0.050630   0.000779   0.002117
     2  C    0.174380   5.030488   0.412973   0.334858  -0.037832  -0.039569
     3  H   -0.038511   0.412973   0.446812  -0.035576  -0.007143   0.003967
     4  C   -0.050630   0.334858  -0.035576   4.983623   0.396952   0.415629
     5  H    0.000779  -0.037832  -0.007143   0.396952   0.533887  -0.042118
     6  H    0.002117  -0.039569   0.003967   0.415629  -0.042118   0.561667
     7  O    0.001371  -0.031931   0.003003   0.145965  -0.035721  -0.035966
     8  C   -0.000058   0.001597  -0.000075  -0.032785  -0.003781  -0.005315
     9  C   -0.043515   0.345846  -0.052984  -0.050697   0.005335  -0.006660
    10  O    0.000886  -0.064122   0.005780   0.001269  -0.000072  -0.000021
    11  O    0.000000  -0.000074  -0.000018  -0.000636   0.001247  -0.000112
    12  C    0.000009   0.000180   0.000016  -0.008811  -0.003499  -0.000796
    13  H    0.000000   0.000004   0.000000   0.000133  -0.000063   0.000055
    14  H    0.000000  -0.000068  -0.000001  -0.002044   0.000418   0.000576
    15  H   -0.000006   0.000414  -0.000002   0.001533  -0.001108  -0.003033
    16  H    0.307746  -0.040066  -0.001615   0.005050  -0.000072  -0.000271
    17  C    0.254955  -0.004341   0.000676  -0.004104   0.001428  -0.004706
    18  O   -0.075851   0.001845  -0.000006  -0.000125  -0.000008   0.000009
    19  C   -0.138079   0.006518  -0.000340  -0.036814  -0.002242  -0.013270
    20  H    0.000766   0.000103  -0.000052  -0.025271   0.001513  -0.015228
    21  H    0.002840  -0.001407  -0.000088  -0.009511   0.001022  -0.013697
    22  H    0.005112  -0.000264   0.000009   0.001547  -0.000126   0.002852
    23  N    0.005664  -0.093919   0.003360   0.004990  -0.000092   0.000905
    24  H   -0.000036   0.004008  -0.000085  -0.000695   0.000012  -0.000051
    25  C    0.000044   0.001907  -0.000185  -0.000015   0.000004  -0.000074
    26  H    0.000065  -0.000225   0.000007   0.000002   0.000000   0.000001
    27  H   -0.000185   0.000355   0.000001  -0.000018   0.000000   0.000000
    28  H    0.000413  -0.000424  -0.000027   0.000026   0.000001  -0.000004
               7          8          9         10         11         12
     1  N    0.001371  -0.000058  -0.043515   0.000886   0.000000   0.000009
     2  C   -0.031931   0.001597   0.345846  -0.064122  -0.000074   0.000180
     3  H    0.003003  -0.000075  -0.052984   0.005780  -0.000018   0.000016
     4  C    0.145965  -0.032785  -0.050697   0.001269  -0.000636  -0.008811
     5  H   -0.035721  -0.003781   0.005335  -0.000072   0.001247  -0.003499
     6  H   -0.035966  -0.005315  -0.006660  -0.000021  -0.000112  -0.000796
     7  O    8.466628   0.239270   0.002795  -0.000197  -0.060292  -0.072309
     8  C    0.239270   4.243601   0.000114   0.000007   0.556033   0.326614
     9  C    0.002795   0.000114   4.408146   0.524271   0.000003  -0.000032
    10  O   -0.000197   0.000007   0.524271   8.143276   0.000000   0.000000
    11  O   -0.060292   0.556033   0.000003   0.000000   8.122992  -0.073223
    12  C   -0.072309   0.326614  -0.000032   0.000000  -0.073223   5.284451
    13  H    0.002029  -0.027558   0.000000   0.000000   0.003532   0.381830
    14  H    0.002778  -0.030356   0.000007   0.000000   0.001235   0.372342
    15  H    0.000840  -0.032593  -0.000009   0.000000   0.001192   0.374538
    16  H   -0.000047   0.000002   0.000490   0.000562   0.000000   0.000000
    17  C    0.000082  -0.000009   0.000167   0.000003   0.000000   0.000000
    18  O    0.000000   0.000000  -0.000042   0.000000   0.000000   0.000000
    19  C    0.000329   0.000102  -0.000280  -0.000012   0.000000  -0.000079
    20  H    0.000648   0.000094   0.000514   0.000044   0.000000   0.000009
    21  H    0.000391   0.000009   0.000214   0.000000   0.000001   0.000135
    22  H   -0.000013  -0.000002  -0.000021   0.000000   0.000000  -0.000002
    23  N    0.000232   0.000002   0.286625  -0.101477   0.000000   0.000000
    24  H    0.000291  -0.000002  -0.022240   0.001376   0.000000   0.000000
    25  C    0.000016   0.000000  -0.037136   0.003115   0.000000   0.000000
    26  H    0.000000   0.000000  -0.001174   0.001081   0.000000   0.000000
    27  H    0.000000   0.000000   0.003099   0.000002   0.000000   0.000000
    28  H    0.000000   0.000000  -0.000344   0.001406   0.000000   0.000000
              13         14         15         16         17         18
     1  N    0.000000   0.000000  -0.000006   0.307746   0.254955  -0.075851
     2  C    0.000004  -0.000068   0.000414  -0.040066  -0.004341   0.001845
     3  H    0.000000  -0.000001  -0.000002  -0.001615   0.000676  -0.000006
     4  C    0.000133  -0.002044   0.001533   0.005050  -0.004104  -0.000125
     5  H   -0.000063   0.000418  -0.001108  -0.000072   0.001428  -0.000008
     6  H    0.000055   0.000576  -0.003033  -0.000271  -0.004706   0.000009
     7  O    0.002029   0.002778   0.000840  -0.000047   0.000082   0.000000
     8  C   -0.027558  -0.030356  -0.032593   0.000002  -0.000009   0.000000
     9  C    0.000000   0.000007  -0.000009   0.000490   0.000167  -0.000042
    10  O    0.000000   0.000000   0.000000   0.000562   0.000003   0.000000
    11  O    0.003532   0.001235   0.001192   0.000000   0.000000   0.000000
    12  C    0.381830   0.372342   0.374538   0.000000   0.000000   0.000000
    13  H    0.433793  -0.016620  -0.019602   0.000000   0.000000   0.000000
    14  H   -0.016620   0.482945  -0.022618   0.000000   0.000001   0.000000
    15  H   -0.019602  -0.022618   0.508824   0.000000   0.000000   0.000000
    16  H    0.000000   0.000000   0.000000   0.354668  -0.022353   0.003383
    17  C    0.000000   0.000001   0.000000  -0.022353   4.224847   0.576184
    18  O    0.000000   0.000000   0.000000   0.003383   0.576184   8.113989
    19  C    0.000000  -0.000034   0.000197   0.008652   0.326342  -0.052034
    20  H   -0.000001  -0.000007   0.000086  -0.000289  -0.028569   0.000848
    21  H   -0.000004   0.000054   0.000727  -0.000021  -0.029522   0.000378
    22  H    0.000000  -0.000003   0.000004  -0.000345  -0.026273   0.002497
    23  N    0.000000   0.000000   0.000000   0.000024   0.001112   0.000001
    24  H    0.000000   0.000000   0.000000  -0.000015  -0.000001   0.000000
    25  C    0.000000   0.000000   0.000000   0.000255  -0.000079  -0.000019
    26  H    0.000000   0.000000   0.000000  -0.000003   0.000007   0.000000
    27  H    0.000000   0.000000   0.000000  -0.000023   0.000036   0.000005
    28  H    0.000000   0.000000   0.000000   0.001300   0.000036  -0.000021
              19         20         21         22         23         24
     1  N   -0.138079   0.000766   0.002840   0.005112   0.005664  -0.000036
     2  C    0.006518   0.000103  -0.001407  -0.000264  -0.093919   0.004008
     3  H   -0.000340  -0.000052  -0.000088   0.000009   0.003360  -0.000085
     4  C   -0.036814  -0.025271  -0.009511   0.001547   0.004990  -0.000695
     5  H   -0.002242   0.001513   0.001022  -0.000126  -0.000092   0.000012
     6  H   -0.013270  -0.015228  -0.013697   0.002852   0.000905  -0.000051
     7  O    0.000329   0.000648   0.000391  -0.000013   0.000232   0.000291
     8  C    0.000102   0.000094   0.000009  -0.000002   0.000002  -0.000002
     9  C   -0.000280   0.000514   0.000214  -0.000021   0.286625  -0.022240
    10  O   -0.000012   0.000044   0.000000   0.000000  -0.101477   0.001376
    11  O    0.000000   0.000000   0.000001   0.000000   0.000000   0.000000
    12  C   -0.000079   0.000009   0.000135  -0.000002   0.000000   0.000000
    13  H    0.000000  -0.000001  -0.000004   0.000000   0.000000   0.000000
    14  H   -0.000034  -0.000007   0.000054  -0.000003   0.000000   0.000000
    15  H    0.000197   0.000086   0.000727   0.000004   0.000000   0.000000
    16  H    0.008652  -0.000289  -0.000021  -0.000345   0.000024  -0.000015
    17  C    0.326342  -0.028569  -0.029522  -0.026273   0.001112  -0.000001
    18  O   -0.052034   0.000848   0.000378   0.002497   0.000001   0.000000
    19  C    5.409419   0.385921   0.384037   0.371416  -0.006098   0.000030
    20  H    0.385921   0.470828  -0.028475  -0.019511   0.012033  -0.000012
    21  H    0.384037  -0.028475   0.504393  -0.016962   0.000067   0.000000
    22  H    0.371416  -0.019511  -0.016962   0.455808   0.000029   0.000000
    23  N   -0.006098   0.012033   0.000067   0.000029   7.248818   0.323478
    24  H    0.000030  -0.000012   0.000000   0.000000   0.323478   0.335682
    25  C    0.000285  -0.000576  -0.000001  -0.000002   0.207074  -0.026598
    26  H   -0.000011   0.000043   0.000000   0.000000  -0.039682  -0.006324
    27  H    0.000279  -0.000530  -0.000001  -0.000001  -0.047008   0.001597
    28  H   -0.000058   0.000106   0.000000   0.000001  -0.043686   0.003490
              25         26         27         28
     1  N    0.000044   0.000065  -0.000185   0.000413
     2  C    0.001907  -0.000225   0.000355  -0.000424
     3  H   -0.000185   0.000007   0.000001  -0.000027
     4  C   -0.000015   0.000002  -0.000018   0.000026
     5  H    0.000004   0.000000   0.000000   0.000001
     6  H   -0.000074   0.000001   0.000000  -0.000004
     7  O    0.000016   0.000000   0.000000   0.000000
     8  C    0.000000   0.000000   0.000000   0.000000
     9  C   -0.037136  -0.001174   0.003099  -0.000344
    10  O    0.003115   0.001081   0.000002   0.001406
    11  O    0.000000   0.000000   0.000000   0.000000
    12  C    0.000000   0.000000   0.000000   0.000000
    13  H    0.000000   0.000000   0.000000   0.000000
    14  H    0.000000   0.000000   0.000000   0.000000
    15  H    0.000000   0.000000   0.000000   0.000000
    16  H    0.000255  -0.000003  -0.000023   0.001300
    17  C   -0.000079   0.000007   0.000036   0.000036
    18  O   -0.000019   0.000000   0.000005  -0.000021
    19  C    0.000285  -0.000011   0.000279  -0.000058
    20  H   -0.000576   0.000043  -0.000530   0.000106
    21  H   -0.000001   0.000000  -0.000001   0.000000
    22  H   -0.000002   0.000000  -0.000001   0.000001
    23  N    0.207074  -0.039682  -0.047008  -0.043686
    24  H   -0.026598  -0.006324   0.001597   0.003490
    25  C    4.949055   0.404676   0.402081   0.400688
    26  H    0.404676   0.506346  -0.033037  -0.020651
    27  H    0.402081  -0.033037   0.518019  -0.030658
    28  H    0.400688  -0.020651  -0.030658   0.511496
 Mulliken charges:
               1
     1  N   -0.823259
     2  C   -0.001233
     3  H    0.260104
     4  C   -0.033847
     5  H    0.191280
     6  H    0.193112
     7  O   -0.630191
     8  C    0.765088
     9  C    0.637506
    10  O   -0.517179
    11  O   -0.551880
    12  C   -0.581375
    13  H    0.242471
    14  H    0.211392
    15  H    0.190615
    16  H    0.382988
    17  C    0.734082
    18  O   -0.571035
    19  C   -0.644177
    20  H    0.244965
    21  H    0.205421
    22  H    0.224249
    23  N   -0.762452
    24  H    0.386094
    25  C   -0.304514
    26  H    0.188877
    27  H    0.185986
    28  H    0.176911
 Sum of Mulliken charges =   0.00000
 Mulliken charges with hydrogens summed into heavy atoms:
               1
     1  N   -0.440271
     2  C    0.258871
     4  C    0.350545
     7  O   -0.630191
     8  C    0.765088
     9  C    0.637506
    10  O   -0.517179
    11  O   -0.551880
    12  C    0.063104
    17  C    0.734082
    18  O   -0.571035
    19  C    0.030457
    23  N   -0.376358
    25  C    0.247260
 Electronic spatial extent (au):  <R**2>=           3348.0601
 Charge=              0.0000 electrons
 Dipole moment (field-independent basis, Debye):
    X=             -0.5075    Y=              1.9345    Z=              5.1347  Tot=              5.5105
 Quadrupole moment (field-independent basis, Debye-Ang):
   XX=           -101.7648   YY=            -94.3593   ZZ=            -83.6916
   XY=             21.6073   XZ=              1.3627   YZ=             -2.6609
 Traceless Quadrupole moment (field-independent basis, Debye-Ang):
   XX=             -8.4929   YY=             -1.0874   ZZ=              9.5803
   XY=             21.6073   XZ=              1.3627   YZ=             -2.6609
 Octapole moment (field-independent basis, Debye-Ang**2):
  XXX=            -47.6066  YYY=             -5.1386  ZZZ=              5.1841  XYY=             32.8671
  XXY=            -11.7273  XXZ=             45.3792  XZZ=              4.7457  YZZ=             -6.4405
  YYZ=             33.7663  XYZ=             -5.3832
 Hexadecapole moment (field-independent basis, Debye-Ang**3):
 XXXX=          -2890.6457 YYYY=          -1378.0468 ZZZZ=           -431.8634 XXXY=            252.1506
 XXXZ=             92.9760 YYYX=             62.5775 YYYZ=            -42.9353 ZZZX=             -8.2581
 ZZZY=             -3.9333 XXYY=           -710.8288 XXZZ=           -490.5148 YYZZ=           -281.9480
 XXYZ=             12.5129 YYXZ=            -48.7375 ZZXY=              9.3792
 N-N= 9.443562787185D+02 E-N=-3.574995082119D+03  KE= 7.170888379985D+02
 Merz-Kollman atomic radii used.

 **********************************************************************

            Electrostatic Properties Using The SCF Density

 **********************************************************************

       Atomic Center    1 is at  -1.396415  0.738895 -1.067727
       Atomic Center    2 is at  -0.349437 -0.282596 -0.957904
       Atomic Center    3 is at  -0.039752 -0.553701 -1.957082
       Atomic Center    4 is at   0.860662  0.310469 -0.230202
       Atomic Center    5 is at   1.281734  1.095118 -0.854957
       Atomic Center    6 is at   0.550907  0.747795  0.716018
       Atomic Center    7 is at   1.845235 -0.663259  0.037904
       Atomic Center    8 is at   3.104137 -0.034303  0.070210
       Atomic Center    9 is at  -0.836940 -1.564678 -0.288058
       Atomic Center   10 is at  -0.866797 -2.641937 -0.937820
       Atomic Center   11 is at   4.090700 -0.525371 -0.609019
       Atomic Center   12 is at   3.305312  1.225951  0.904780
       Atomic Center   13 is at   4.335752  1.566248  0.805983
       Atomic Center   14 is at   3.093514  1.005610  1.951106
       Atomic Center   15 is at   2.629460  2.005749  0.552785
       Atomic Center   16 is at  -2.292760  0.296216 -1.092235
       Atomic Center   17 is at  -1.855934  1.891013 -0.278824
       Atomic Center   18 is at  -2.880914  2.531022 -0.630073
       Atomic Center   19 is at  -0.894223  2.075773  0.909693
       Atomic Center   20 is at  -0.738429  1.133556  1.392245
       Atomic Center   21 is at   0.041866  2.454220  0.555552
       Atomic Center   22 is at  -1.317903  2.767915  1.607070
       Atomic Center   23 is at  -1.271534 -1.540936  1.116030
       Atomic Center   24 is at  -0.802950 -2.264904  1.622289
       Atomic Center   25 is at  -2.723979 -1.757275  1.183129
       Atomic Center   26 is at  -2.920943 -2.761600  1.495277
       Atomic Center   27 is at  -3.154190 -1.074534  1.885754
       Atomic Center   28 is at  -3.154024 -1.593163  0.217195
    1197 points will be used for fitting atomic charges
 Fitting point charges to electrostatic potential
 Charges from ESP fit, RMS=   0.00184 RRMS=   0.07518:
 ESP charges:
               1
     1  N   -0.833345
     2  C    0.182324
     3  H    0.072603
     4  C    0.093668
     5  H    0.125430
     6  H    0.036723
     7  O   -0.520641
     8  C    0.824700
     9  C    0.704915
    10  O   -0.532718
    11  O   -0.552328
    12  C   -0.503717
    13  H    0.161443
    14  H    0.170717
    15  H    0.123154
    16  H    0.365953
    17  C    0.790790
    18  O   -0.573071
    19  C   -0.310245
    20  H    0.101910
    21  H    0.113191
    22  H    0.075362
    23  N   -0.670661
    24  H    0.381640
    25  C   -0.105890
    26  H    0.098996
    27  H    0.084120
    28  H    0.094978
 Sum of ESP charges =   0.00000
 ESP charges with hydrogens summed into heavy atoms:
               1
     1  N   -0.467392
     2  C    0.254926
     4  C    0.255821
     7  O   -0.520641
     8  C    0.824700
     9  C    0.704915
    10  O   -0.532718
    11  O   -0.552328
    12  C   -0.048404
    17  C    0.790790
    18  O   -0.573071
    19  C   -0.019782
    23  N   -0.289020
    25  C    0.172204
 Charge=   0.00000 Dipole=    -0.5287     1.9376     5.1603 Tot=     5.5374
 Writing Antechamber ESP file "/users/acebrian/Acetylated/SAS.gesp"
 -----------------------------------------------------------------

              Electrostatic Properties (Atomic Units)

 -----------------------------------------------------------------
    Center     Electric         -------- Electric Field --------
               Potential          X             Y             Z
 -----------------------------------------------------------------
    1 Atom    -18.296829
    2 Atom    -14.635833
    3 Atom     -1.083470
    4 Atom    -14.633770
    5 Atom     -1.065988
    6 Atom     -1.071104
    7 Atom    -22.244073
    8 Atom    -14.534000
    9 Atom    -14.568117
   10 Atom    -22.295595
   11 Atom    -22.307186
   12 Atom    -14.681346
   13 Atom     -1.069417
   14 Atom     -1.057642
   15 Atom     -1.055225
   16 Atom     -1.005430
   17 Atom    -14.550294
   18 Atom    -22.304421
   19 Atom    -14.700613
   20 Atom     -1.063905
   21 Atom     -1.058101
   22 Atom     -1.084488
   23 Atom    -18.309458
   24 Atom     -1.013644
   25 Atom    -14.682345
   26 Atom     -1.095366
   27 Atom     -1.101489
   28 Atom     -1.085140
 -----------------------------------------------------------------

 Test job not archived.
 1\1\GINC-BORG-TEST\SP\RHF\6-31G(d)\C8H14N2O4\ACEBRIAN\11-May-2017\0\\#
  hf/6-31g* geom=connectivity iop(6/50=1) pop=mk\\SAS with out OH\\0,1\
 N,0,47.601,51.813,51.35\C,0,46.675,52.945,51.463\H,0,47.254,53.831,51.
 681\C,0,45.97,53.157,50.12\H,0,46.716,53.461,49.389\H,0,45.514,52.228,
 49.786\O,0,44.959,54.137,50.203\C,0,44.82,54.749,48.943\C,0,45.675,52.
 784,52.605\O,0,45.69440053,53.58439878,53.57585322\O,0,44.81,56.04,48.
 848\C,0,44.682,53.891,47.69\H,0,44.586,54.536,46.817\H,0,43.796,53.262
 ,47.777\H,0,45.566,53.262,47.582\H,0,47.70366504,51.37585231,52.243510
 93\C,0,47.6660416,50.55347402,50.59484181\O,0,48.59736898,49.73444808,
 50.80790608\C,0,46.4722726,50.51203764,49.62283431\H,0,45.57566657,50.
 76731075,50.14803263\H,0,46.63315498,51.21267847,48.83029454\H,0,46.37
 855968,49.52733344,49.21482016\N,0,44.68932581,51.69396929,52.57065687
 \H,0,43.77526103,52.06590066,52.73237461\C,0,45.00992561,50.71035324,5
 3.61498211\H,0,44.3382296,50.8330486,54.4387966\H,0,44.90958224,49.722
 16591,53.2170914\H,0,46.0153267,50.85988008,53.94921313\\Version=AS64L
 -G09RevD.01\State=1-A\HF=-719.3185042\RMSD=6.236e-09\Dipole=-1.2088761
 ,-1.5779707,-0.865326\Quadrupole=0.8148911,-12.9508885,12.1359974,12.0
 753378,-0.986179,-2.0034722\PG=C01 [X(C8H14N2O4)]\\@


     SCHOPENHAUER'S LAW OF ENTROPY
 IF YOU PUT A SPOONFUL OF WINE IN A BARREL FULL
 OF SEWAGE, YOU GET SEWAGE.
 IF YOU PUT A SPOONFUL OF SEWAGE IN A BARREL FULL
 OF WINE, YOU GET SEWAGE.
 Job cpu time:       0 days  0 hours  2 minutes 37.7 seconds.
 File lengths (MBytes):  RWF=     32 Int=      0 D2E=      0 Chk=      5 Scr=      1
 Normal termination of Gaussian 09 at Thu May 11 16:54:01 2017.
Thu May 11 16:54:01 CEST 2017
